                         Program Version 5.0.4 -  RELEASE  -
|  1> ! B3LYP EPR-II AUTOAUX
|  2> %pal nprocs 16 end
|  3> *XYZFile 1 2 opt.xyz
|  4> %EPRNMR
|  5>         GTENSOR   TRUE
|  6>         NUCLEI    = 9,15,29,30,31,32,33 {SHIFT, AISO, ADIP, AORB}
|  7>         ORI       GIAO
|  8> END
|  9>
| 10>                          ****END OF INPUT****

CARTESIAN COORDINATES (ANGSTROEM)
---------------------------------
  N     -7.879860    0.843240    0.071065
  C     -6.449482    0.845818    0.186081
  C     -6.126094    0.866142    1.696700
  O     -6.908102    1.402274    2.482423
  C     -5.746994    2.065249   -0.542217
  C     -6.156621    3.442635   -0.012386
  C     -5.508050    4.540574   -0.882534
  C     -5.973071    5.968803   -0.388244
  N     -5.402749    7.015754   -1.178681
  H     -8.388148    1.136328    0.901543
  C     -8.537574    0.491782   -1.099980
  N     -4.942953    0.304118    2.049696
  H     -4.428098   -0.206486    1.345853
  O     -7.889606    0.213118   -2.105279
  H     -4.432712    7.277793   -1.049939
  C     -4.508485    0.184487    3.444424
  H     -4.752321   -0.803202    3.848785
  H     -3.429030    0.341188    3.503225
  H     -5.025173    0.942830    4.032353
  C    -10.052365    0.456138   -1.036209
  H    -10.455672    0.878457   -1.958386
  H    -10.367606   -0.591325   -0.985052
  H    -10.460211    0.986199   -0.172211
  H     -6.062276   -0.046340   -0.320701
  H     -4.664645    1.923285   -0.453069
  H     -6.009003    1.952906   -1.599745
  H     -5.851638    3.572678    1.031228
  H     -7.247444    3.543062   -0.042677
  H     -4.415740    4.492883   -0.822265
  H     -5.793009    4.422397   -1.933180
  H     -5.664225    6.094830    0.653862
  H     -7.063013    6.027826   -0.450814
  H     -5.805282    7.250238   -2.078161

 Total Charge           Charge          ....    1
 Multiplicity           Mult            ....    2
 Number of Electrons    NEL             ....  109
 Basis Dimension        Dim             ....  371

ORBITAL ENERGIES
----------------
                 SPIN UP ORBITALS
  NO   OCC          E(Eh)            E(eV)
   0   1.0000     -19.249780      -523.8132
   1   1.0000     -19.249172      -523.7966
   2   1.0000     -14.540640      -395.6709
   3   1.0000     -14.509746      -394.8303
   4   1.0000     -14.498117      -394.5138
   5   1.0000     -10.429281      -283.7952
   6   1.0000     -10.425945      -283.7044
   7   1.0000     -10.383642      -282.5533
   8   1.0000     -10.381173      -282.4861
   9   1.0000     -10.344207      -281.4802
  10   1.0000     -10.333722      -281.1949
  11   1.0000     -10.328384      -281.0496
  12   1.0000     -10.328058      -281.0408
  13   1.0000     -10.300703      -280.2964
  14   1.0000      -1.176362       -32.0104
  15   1.0000      -1.167052       -31.7571
  16   1.0000      -1.087753       -29.5993
  17   1.0000      -1.065693       -28.9990
  18   1.0000      -1.054528       -28.6952
  19   1.0000      -0.945921       -25.7398
  20   1.0000      -0.903623       -24.5888
  21   1.0000      -0.857809       -23.3422
  22   1.0000      -0.842728       -22.9318
  23   1.0000      -0.809822       -22.0364
  24   1.0000      -0.771630       -20.9971
  25   1.0000      -0.741342       -20.1729
  26   1.0000      -0.719873       -19.5887
  27   1.0000      -0.707194       -19.2437
  28   1.0000      -0.706252       -19.2181
  29   1.0000      -0.666016       -18.1232
  30   1.0000      -0.634718       -17.2715
  31   1.0000      -0.615762       -16.7557
  32   1.0000      -0.611619       -16.6430
  33   1.0000      -0.601937       -16.3795
  34   1.0000      -0.594976       -16.1901
  35   1.0000      -0.580417       -15.7940
  36   1.0000      -0.571184       -15.5427
  37   1.0000      -0.565101       -15.3772
  38   1.0000      -0.556251       -15.1364
  39   1.0000      -0.548318       -14.9205
  40   1.0000      -0.533706       -14.5229
  41   1.0000      -0.527222       -14.3465
  42   1.0000      -0.512892       -13.9565
  43   1.0000      -0.510366       -13.8878
  44   1.0000      -0.508610       -13.8400
  45   1.0000      -0.504737       -13.7346
  46   1.0000      -0.494239       -13.4489
  47   1.0000      -0.489293       -13.3143
  48   1.0000      -0.478671       -13.0253
  49   1.0000      -0.472904       -12.8684
  50   1.0000      -0.433967       -11.8088
  51   1.0000      -0.409005       -11.1296
  52   1.0000      -0.397684       -10.8215
  53   1.0000      -0.386556       -10.5187
  54   1.0000      -0.385628       -10.4935
  55   0.0000      -0.121734        -3.3126
  56   0.0000      -0.115212        -3.1351
  57   0.0000      -0.105617        -2.8740
  58   0.0000      -0.099124        -2.6973
  59   0.0000      -0.090152        -2.4532

                 SPIN DOWN ORBITALS
  NO   OCC          E(Eh)            E(eV)
   0   1.0000     -19.248758      -523.7853
   1   1.0000     -19.246476      -523.7232
   2   1.0000     -14.531131      -395.4122
   3   1.0000     -14.505606      -394.7176
   4   1.0000     -14.497083      -394.4857
   5   1.0000     -10.429381      -283.7979
   6   1.0000     -10.426762      -283.7266
   7   1.0000     -10.383353      -282.5454
   8   1.0000     -10.380635      -282.4714
   9   1.0000     -10.342524      -281.4344
  10   1.0000     -10.332773      -281.1691
  11   1.0000     -10.328373      -281.0493
  12   1.0000     -10.327668      -281.0301
  13   1.0000     -10.300674      -280.2956
  14   1.0000      -1.173274       -31.9264
  15   1.0000      -1.163025       -31.6475
  16   1.0000      -1.068387       -29.0723
  17   1.0000      -1.057436       -28.7743
  18   1.0000      -1.052207       -28.6320
  19   1.0000      -0.941444       -25.6180
  20   1.0000      -0.898620       -24.4527
  21   1.0000      -0.854394       -23.2493
  22   1.0000      -0.840933       -22.8830
  23   1.0000      -0.806633       -21.9496
  24   1.0000      -0.768036       -20.8993
  25   1.0000      -0.738495       -20.0955
  26   1.0000      -0.718578       -19.5535
  27   1.0000      -0.704602       -19.1732
  28   1.0000      -0.700357       -19.0577
  29   1.0000      -0.664374       -18.0785
  30   1.0000      -0.629469       -17.1287
  31   1.0000      -0.613259       -16.6876
  32   1.0000      -0.607820       -16.5396
  33   1.0000      -0.595244       -16.1974
  34   1.0000      -0.593030       -16.1372
  35   1.0000      -0.577987       -15.7278
  36   1.0000      -0.568439       -15.4680
  37   1.0000      -0.555064       -15.1041
  38   1.0000      -0.552326       -15.0295
  39   1.0000      -0.544511       -14.8169
  40   1.0000      -0.531642       -14.4667
  41   1.0000      -0.520733       -14.1699
  42   1.0000      -0.511995       -13.9321
  43   1.0000      -0.509772       -13.8716
  44   1.0000      -0.504335       -13.7236
  45   1.0000      -0.503678       -13.7058
  46   1.0000      -0.488141       -13.2830
  47   1.0000      -0.486402       -13.2357
  48   1.0000      -0.476266       -12.9599
  49   1.0000      -0.463638       -12.6162
  50   1.0000      -0.397762       -10.8236
  51   1.0000      -0.387966       -10.5571
  52   1.0000      -0.381881       -10.3915
  53   1.0000      -0.367319        -9.9953
  54   0.0000      -0.338369        -9.2075
  55   0.0000      -0.119128        -3.2416
  56   0.0000      -0.112972        -3.0741
  57   0.0000      -0.101375        -2.7586
  58   0.0000      -0.097783        -2.6608

MULLIKEN ATOMIC CHARGES AND SPIN POPULATIONS
--------------------------------------------
   0 N :   -0.061167    0.208774
   1 C :   -0.135394    0.018685
   2 C :    0.091015   -0.007332
   3 O :   -0.289528    0.039400
   4 C :   -0.267246    0.053051
   5 C :   -0.225632    0.017844
   6 C :   -0.293265    0.085062
   7 C :   -0.268900    0.004847
   8 N :   -0.291259    0.477270
   9 H :    0.275462   -0.007912
  10 C :    0.168442   -0.045901
  11 N :   -0.093597    0.045784
  12 H :    0.248074   -0.001675
  13 O :   -0.241052    0.106587
  14 H :    0.290476   -0.015516
  15 C :   -0.435212    0.000987
  16 H :    0.192084    0.002940
  17 H :    0.172568    0.002298
  18 H :    0.202238    0.000265
  19 C :   -0.523673    0.002221
  20 H :    0.201931   -0.000721
  21 H :    0.207817   -0.001192
  22 H :    0.159229   -0.000396
  23 H :    0.184847    0.013802
  24 H :    0.163652   -0.001293
  25 H :    0.196513    0.002622
  26 H :    0.172898    0.000716
  27 H :    0.157516   -0.000762
  28 H :    0.175359   -0.001150
  29 H :    0.175461   -0.002768
  30 H :    0.200112    0.010646
  31 H :    0.198054    0.008304
  32 H :    0.292178   -0.015484
Sum of atomic charges         :    1.0000000

LOEWDIN ATOMIC CHARGES AND SPIN POPULATIONS
-------------------------------------------
   0 N :    0.132283    0.174679
   1 C :   -0.030955    0.035799
   2 C :   -0.096513    0.000809
   3 O :   -0.159133    0.035853
   4 C :   -0.026253    0.045434
   5 C :   -0.056160    0.018290
   6 C :   -0.045080    0.078286
   7 C :   -0.013325    0.034933
   8 N :    0.174957    0.413715
   9 H :    0.106048    0.002000
  10 C :   -0.079906   -0.024743
  11 N :    0.072133    0.039627
  12 H :    0.089312    0.000281
  13 O :   -0.119214    0.099830
  14 H :    0.090899    0.004321
  15 C :    0.033106    0.002379
  16 H :    0.044517    0.002423
  17 H :    0.041393    0.002028
  18 H :    0.056215    0.000475
  19 C :   -0.021090    0.000281
  20 H :    0.063640   -0.000573
  21 H :    0.069096   -0.001190
  22 H :    0.042255   -0.000340
  23 H :    0.077530    0.010453
  24 H :    0.055050    0.000127
  25 H :    0.066647    0.003253
  26 H :    0.057232    0.000721
  27 H :    0.053733    0.000366
  28 H :    0.052360    0.000086
  29 H :    0.053073   -0.000507
  30 H :    0.063244    0.009423
  31 H :    0.061558    0.007106
  32 H :    0.091348    0.004376

  Mayer bond orders larger than 0.100000
B(  0-N ,  1-C ) :   1.0639 B(  0-N ,  8-N ) :   0.1237 B(  0-N ,  9-H ) :   0.8730
B(  0-N , 10-C ) :   1.1418 B(  1-C ,  2-C ) :   0.8867 B(  1-C ,  4-C ) :   0.8877
B(  1-C , 13-O ) :   0.1216 B(  1-C , 23-H ) :   0.9493 B(  2-C ,  3-O ) :   1.8575
B(  2-C , 11-N ) :   1.2242 B(  4-C ,  5-C ) :   0.9594 B(  4-C , 24-H ) :   0.9618
B(  4-C , 25-H ) :   0.9457 B(  5-C ,  6-C ) :   0.9443 B(  5-C , 26-H ) :   0.9565
B(  5-C , 27-H ) :   0.9687 B(  6-C ,  7-C ) :   0.8833 B(  6-C , 28-H ) :   0.9621
B(  6-C , 29-H ) :   0.9621 B(  7-C ,  8-N ) :   1.0475 B(  7-C , 30-H ) :   0.9400
B(  7-C , 31-H ) :   0.9440 B(  8-N , 14-H ) :   0.9102 B(  8-N , 32-H ) :   0.9095
B( 10-C , 13-O ) :   1.9004 B( 10-C , 19-C ) :   0.9203 B( 11-N , 12-H ) :   0.9211
B( 11-N , 15-C ) :   0.9585 B( 15-C , 16-H ) :   0.9471 B( 15-C , 17-H ) :   0.9547
B( 15-C , 18-H ) :   0.9440 B( 19-C , 20-H ) :   0.9515 B( 19-C , 21-H ) :   0.9382
B( 19-C , 22-H ) :   0.9687

FINAL SINGLE POINT ENERGY      -668.593634876007

DIPOLE MOMENT
-------------
                                X             Y             Z
Electronic contribution:     -2.71585      -6.41220      -0.24846
Nuclear contribution   :      4.24791       9.25634      -0.22468
                        -----------------------------------------
Total Dipole Moment    :      1.53206       2.84414      -0.47313
                        -----------------------------------------
Magnitude (a.u.)       :      3.26499
Magnitude (Debye)      :      8.29896

Rotational constants in cm-1:     0.019656     0.013095     0.008918
Rotational constants in MHz :   589.273231   392.571423   267.346542

CHEMICAL SHIELDING SUMMARY (ppm)  --  Orbital contribution
----------------------------------------------------------

  Nucleus  Element    Isotropic     Anisotropy
  -------  -------  ------------   ------------
      8       N          101.736        154.504
     14       H           26.259          8.016
     28       H           29.995          4.353
     29       H           29.832          3.450
     30       H           28.060          4.811
     31       H           28.147          4.589
     32       H           26.217          8.062

                             ****ORCA TERMINATED NORMALLY****
TOTAL RUN TIME: 0 days 0 hours 7 minutes 10 seconds 24 msec
