                         Program Version 5.0.4 -  RELEASE  -
|  1> ! M062X def2-TZVP OPT FREQ
|  2> %pal nprocs 16 end
|  3> *XYZFile 1 2 opt.xyz
|  4>
|  5>                          ****END OF INPUT****
 Total Charge           Charge          ....    1
 Multiplicity           Mult            ....    2
 Number of Electrons    NEL             ....  109
FINAL SINGLE POINT ENERGY      -668.791463287652
FINAL SINGLE POINT ENERGY      -668.795686897714
FINAL SINGLE POINT ENERGY      -668.796402822378
FINAL SINGLE POINT ENERGY      -668.796906064955
FINAL SINGLE POINT ENERGY      -668.797076633950
FINAL SINGLE POINT ENERGY      -668.797141855962
FINAL SINGLE POINT ENERGY      -668.797098837495
FINAL SINGLE POINT ENERGY      -668.796971107813
FINAL SINGLE POINT ENERGY      -668.796940992059
FINAL SINGLE POINT ENERGY      -668.797007358707
FINAL SINGLE POINT ENERGY      -668.796981226339
FINAL SINGLE POINT ENERGY      -668.796985820701
                    ***********************HURRAY********************

CARTESIAN COORDINATES (ANGSTROEM)
---------------------------------
  N     -7.914574    0.902095    0.029135
  C     -6.494131    0.831701    0.186870
  C     -6.182928    0.884675    1.680670
  O     -6.978355    1.376228    2.459048
  C     -5.756632    1.982733   -0.551235
  C     -6.075609    3.343724    0.066245
  C     -5.559667    4.408706   -0.886072
  C     -5.881572    5.863221   -0.228504
  N     -5.470116    6.838548   -1.123903
  H     -8.452549    1.068171    0.868626
  C     -8.505982    0.585940   -1.162372
  N     -4.964959    0.429469    2.028684
  H     -4.430932   -0.075695    1.340223
  O     -7.835526    0.346962   -2.146149
  H     -4.504585    7.147378   -1.161762
  C     -4.507284    0.413807    3.407935
  H     -4.694629   -0.552426    3.876757
  H     -3.440953    0.627937    3.440798
  H     -5.050461    1.179402    3.955069
  C    -10.010642    0.534997   -1.160538
  H    -10.377137    0.918935   -2.109335
  H    -10.314775   -0.509720   -1.082709
  H    -10.451932    1.088319   -0.333592
  H     -6.126983   -0.095334   -0.265764
  H     -4.681573    1.795797   -0.521756
  H     -6.081447    1.930227   -1.591558
  H     -5.608518    3.444375    1.048056
  H     -7.155170    3.438743    0.200547
  H     -4.481089    4.356685   -1.031734
  H     -6.058951    4.367173   -1.853403
  H     -5.314881    5.908897    0.699549
  H     -6.956882    5.900677   -0.067833
  H     -6.075832    7.153334   -1.874486

 Multiplicity           Mult            ....    2
 Number of Electrons    NEL             ....  109
 Basis Dimension        Dim             ....  548

ORBITAL ENERGIES
----------------
                 SPIN UP ORBITALS
  NO   OCC          E(Eh)            E(eV)
   0   1.0000     -19.706822      -536.2499
   1   1.0000     -19.690379      -535.8025
   2   1.0000     -15.029571      -408.9754
   3   1.0000     -14.886802      -405.0905
   4   1.0000     -14.877001      -404.8238
   5   1.0000     -10.782960      -293.4192
   6   1.0000     -10.754903      -292.6558
   7   1.0000     -10.740803      -292.2721
   8   1.0000     -10.736280      -292.1490
   9   1.0000     -10.705634      -291.3151
  10   1.0000     -10.688883      -290.8593
  11   1.0000     -10.673708      -290.4464
  12   1.0000     -10.665042      -290.2105
  13   1.0000     -10.627257      -289.1824
  14   1.0000      -1.282494       -34.8984
  15   1.0000      -1.273779       -34.6613
  16   1.0000      -1.264405       -34.4062
  17   1.0000      -1.147499       -31.2250
  18   1.0000      -1.144530       -31.1442
  19   1.0000      -1.072242       -29.1772
  20   1.0000      -1.008170       -27.4337
  21   1.0000      -0.960863       -26.1464
  22   1.0000      -0.923178       -25.1210
  23   1.0000      -0.906843       -24.6765
  24   1.0000      -0.864258       -23.5177
  25   1.0000      -0.850754       -23.1502
  26   1.0000      -0.830204       -22.5910
  27   1.0000      -0.783034       -21.3074
  28   1.0000      -0.774148       -21.0656
  29   1.0000      -0.756906       -20.5965
  30   1.0000      -0.729572       -19.8527
  31   1.0000      -0.713947       -19.4275
  32   1.0000      -0.703396       -19.1404
  33   1.0000      -0.678556       -18.4644
  34   1.0000      -0.656381       -17.8610
  35   1.0000      -0.653874       -17.7928
  36   1.0000      -0.649231       -17.6665
  37   1.0000      -0.634599       -17.2683
  38   1.0000      -0.624812       -17.0020
  39   1.0000      -0.616448       -16.7744
  40   1.0000      -0.601267       -16.3613
  41   1.0000      -0.593020       -16.1369
  42   1.0000      -0.585156       -15.9229
  43   1.0000      -0.579529       -15.7698
  44   1.0000      -0.560489       -15.2517
  45   1.0000      -0.557692       -15.1756
  46   1.0000      -0.555624       -15.1193
  47   1.0000      -0.553009       -15.0482
  48   1.0000      -0.544525       -14.8173
  49   1.0000      -0.532242       -14.4830
  50   1.0000      -0.510266       -13.8850
  51   1.0000      -0.452250       -12.3063
  52   1.0000      -0.439037       -11.9468
  53   1.0000      -0.430985       -11.7277
  54   1.0000      -0.422965       -11.5095
  55   0.0000      -0.121141        -3.2964
  56   0.0000      -0.076770        -2.0890
  57   0.0000      -0.073018        -1.9869
  58   0.0000      -0.060227        -1.6389
  59   0.0000      -0.047500        -1.2925

                 SPIN DOWN ORBITALS
  NO   OCC          E(Eh)            E(eV)
   0   1.0000     -19.706828      -536.2500
   1   1.0000     -19.690070      -535.7940
   2   1.0000     -15.020770      -408.7359
   3   1.0000     -14.886681      -405.0872
   4   1.0000     -14.876367      -404.8065
   5   1.0000     -10.782651      -293.4108
   6   1.0000     -10.754919      -292.6562
   7   1.0000     -10.740878      -292.2742
   8   1.0000     -10.734771      -292.1080
   9   1.0000     -10.705365      -291.3078
  10   1.0000     -10.688567      -290.8507
  11   1.0000     -10.673348      -290.4366
  12   1.0000     -10.665044      -290.2106
  13   1.0000     -10.627256      -289.1823
  14   1.0000      -1.282334       -34.8941
  15   1.0000      -1.263527       -34.3823
  16   1.0000      -1.243951       -33.8496
  17   1.0000      -1.147082       -31.2137
  18   1.0000      -1.142392       -31.0861
  19   1.0000      -1.062375       -28.9087
  20   1.0000      -0.999624       -27.2011
  21   1.0000      -0.953940       -25.9580
  22   1.0000      -0.922456       -25.1013
  23   1.0000      -0.901948       -24.5433
  24   1.0000      -0.859102       -23.3773
  25   1.0000      -0.837981       -22.8026
  26   1.0000      -0.827658       -22.5217
  27   1.0000      -0.782716       -21.2988
  28   1.0000      -0.767872       -20.8949
  29   1.0000      -0.747681       -20.3454
  30   1.0000      -0.728170       -19.8145
  31   1.0000      -0.710553       -19.3351
  32   1.0000      -0.678223       -18.4554
  33   1.0000      -0.668952       -18.2031
  34   1.0000      -0.653895       -17.7934
  35   1.0000      -0.649730       -17.6800
  36   1.0000      -0.638667       -17.3790
  37   1.0000      -0.630871       -17.1669
  38   1.0000      -0.619449       -16.8561
  39   1.0000      -0.612412       -16.6646
  40   1.0000      -0.599358       -16.3094
  41   1.0000      -0.587896       -15.9975
  42   1.0000      -0.578338       -15.7374
  43   1.0000      -0.568996       -15.4832
  44   1.0000      -0.560352       -15.2480
  45   1.0000      -0.555791       -15.1238
  46   1.0000      -0.553242       -15.0545
  47   1.0000      -0.544267       -14.8103
  48   1.0000      -0.541462       -14.7339
  49   1.0000      -0.512625       -13.9492
  50   1.0000      -0.451486       -12.2855
  51   1.0000      -0.436117       -11.8674
  52   1.0000      -0.430277       -11.7084
  53   1.0000      -0.415433       -11.3045
  54   0.0000      -0.330916        -9.0047
  55   0.0000      -0.118917        -3.2359
  56   0.0000      -0.074746        -2.0339
  57   0.0000      -0.072123        -1.9626
  58   0.0000      -0.059847        -1.6285

MULLIKEN ATOMIC CHARGES AND SPIN POPULATIONS
--------------------------------------------
   0 N :   -0.396248    0.044000
   1 C :   -0.104816    0.019148
   2 C :    0.355111   -0.002061
   3 O :   -0.399081   -0.000550
   4 C :   -0.326774    0.036695
   5 C :   -0.339518    0.040612
   6 C :   -0.254417    0.175860
   7 C :   -0.170831    0.019923
   8 N :   -0.244176    0.674629
   9 H :    0.282843   -0.001785
  10 C :    0.385880   -0.008984
  11 N :   -0.350450    0.007283
  12 H :    0.258399   -0.000260
  13 O :   -0.386184    0.016951
  14 H :    0.319637   -0.024887
  15 C :   -0.308902   -0.000296
  16 H :    0.170924    0.000590
  17 H :    0.154225    0.000321
  18 H :    0.178461    0.000073
  19 C :   -0.455762   -0.000006
  20 H :    0.169145   -0.000080
  21 H :    0.179610   -0.000175
  22 H :    0.139165   -0.000086
  23 H :    0.215622    0.009943
  24 H :    0.181587   -0.001435
  25 H :    0.223507    0.000094
  26 H :    0.185590   -0.002166
  27 H :    0.189159   -0.002513
  28 H :    0.193473   -0.003972
  29 H :    0.204041   -0.005546
  30 H :    0.215173    0.018159
  31 H :    0.214451    0.015299
  32 H :    0.321160   -0.024774
Sum of atomic charges         :    1.0000000

LOEWDIN ATOMIC CHARGES AND SPIN POPULATIONS
-------------------------------------------
   0 N :    0.150203    0.032967
   1 C :   -0.242502    0.025153
   2 C :   -0.451671    0.000172
   3 O :    0.069588   -0.000444
   4 C :   -0.212766    0.035320
   5 C :   -0.248737    0.034407
   6 C :   -0.183564    0.156837
   7 C :   -0.254975    0.115134
   8 N :    0.191356    0.547870
   9 H :    0.200431    0.000100
  10 C :   -0.468960   -0.000924
  11 N :    0.107903    0.005657
  12 H :    0.192059    0.000011
  13 O :    0.076481    0.013904
  14 H :    0.202229    0.000601
  15 C :   -0.289013    0.000624
  16 H :    0.124314    0.000360
  17 H :    0.120921    0.000215
  18 H :    0.133359    0.000062
  19 C :   -0.253645   -0.000420
  20 H :    0.142228   -0.000057
  21 H :    0.149300   -0.000125
  22 H :    0.127310   -0.000057
  23 H :    0.173793    0.007241
  24 H :    0.146508   -0.000318
  25 H :    0.160104    0.000781
  26 H :    0.153264   -0.000343
  27 H :    0.153274   -0.000116
  28 H :    0.149768    0.000065
  29 H :    0.151166   -0.000742
  30 H :    0.163946    0.013468
  31 H :    0.163494    0.012023
  32 H :    0.202839    0.000575

  Mayer bond orders larger than 0.100000
B(  0-N ,  1-C ) :   0.9696 B(  0-N ,  9-H ) :   0.8762 B(  0-N , 10-C ) :   1.1614
B(  1-C ,  2-C ) :   0.9286 B(  1-C ,  4-C ) :   0.8441 B(  1-C , 23-H ) :   0.9806
B(  2-C ,  3-O ) :   1.8871 B(  2-C , 11-N ) :   1.2415 B(  4-C ,  5-C ) :   0.8221
B(  4-C , 24-H ) :   0.9712 B(  4-C , 25-H ) :   0.9703 B(  5-C ,  6-C ) :   0.8587
B(  5-C , 26-H ) :   0.9682 B(  5-C , 27-H ) :   0.9805 B(  6-C ,  7-C ) :   0.6985
B(  6-C , 28-H ) :   0.9587 B(  6-C , 29-H ) :   0.9737 B(  7-C ,  8-N ) :   1.0969
B(  7-C , 30-H ) :   0.9564 B(  7-C , 31-H ) :   0.9588 B(  8-N , 14-H ) :   0.8772
B(  8-N , 32-H ) :   0.8768 B( 10-C , 13-O ) :   1.9039 B( 10-C , 19-C ) :   0.9242
B( 11-N , 12-H ) :   0.9124 B( 11-N , 15-C ) :   0.8921 B( 15-C , 16-H ) :   0.9679
B( 15-C , 17-H ) :   0.9631 B( 15-C , 18-H ) :   0.9605 B( 19-C , 20-H ) :   0.9657
B( 19-C , 21-H ) :   0.9404 B( 19-C , 22-H ) :   0.9837

FINAL SINGLE POINT ENERGY      -668.796984842945

DIPOLE MOMENT
-------------
                                X             Y             Z
Electronic contribution:     -2.20716      -3.78288      -0.82900
Nuclear contribution   :      4.38190       9.02192      -0.03860
                        -----------------------------------------
Total Dipole Moment    :      2.17474       5.23904      -0.86760
                        -----------------------------------------
Magnitude (a.u.)       :      5.73844
Magnitude (Debye)      :     14.58597

VIBRATIONAL FREQUENCIES
-----------------------

Scaling factor for frequencies =  1.000000000  (already applied!)

   0:         0.00 cm**-1
   1:         0.00 cm**-1
   2:         0.00 cm**-1
   3:         0.00 cm**-1
   4:         0.00 cm**-1
   5:         0.00 cm**-1
   6:        29.51 cm**-1
   7:        41.59 cm**-1
   8:        64.05 cm**-1
   9:        72.28 cm**-1
  10:        86.35 cm**-1
  11:        90.50 cm**-1
  12:       100.59 cm**-1
  13:       107.09 cm**-1
  14:       127.56 cm**-1
  15:       153.67 cm**-1
  16:       156.44 cm**-1
  17:       186.98 cm**-1
  18:       209.82 cm**-1
  19:       253.99 cm**-1
  20:       291.56 cm**-1
  21:       309.56 cm**-1
  22:       353.91 cm**-1
  23:       356.27 cm**-1
  24:       366.88 cm**-1
  25:       382.42 cm**-1
  26:       467.36 cm**-1
  27:       508.55 cm**-1
  28:       548.55 cm**-1
  29:       569.86 cm**-1
  30:       649.62 cm**-1
  31:       656.02 cm**-1
  32:       660.80 cm**-1
  33:       699.62 cm**-1
  34:       712.44 cm**-1
  35:       758.62 cm**-1
  36:       795.68 cm**-1
  37:       824.70 cm**-1
  38:       886.74 cm**-1
  39:       889.95 cm**-1
  40:       935.16 cm**-1
  41:       994.43 cm**-1
  42:       999.59 cm**-1
  43:      1017.14 cm**-1
  44:      1032.10 cm**-1
  45:      1044.16 cm**-1
  46:      1061.79 cm**-1
  47:      1073.20 cm**-1
  48:      1121.98 cm**-1
  49:      1140.10 cm**-1
  50:      1158.84 cm**-1
  51:      1167.58 cm**-1
  52:      1185.92 cm**-1
  53:      1190.70 cm**-1
  54:      1233.13 cm**-1
  55:      1250.16 cm**-1
  56:      1252.83 cm**-1
  57:      1262.00 cm**-1
  58:      1279.29 cm**-1
  59:      1292.62 cm**-1
  60:      1311.35 cm**-1
  61:      1343.97 cm**-1
  62:      1350.39 cm**-1
  63:      1368.99 cm**-1
  64:      1383.00 cm**-1
  65:      1407.38 cm**-1
  66:      1457.09 cm**-1
  67:      1470.01 cm**-1
  68:      1484.05 cm**-1
  69:      1485.91 cm**-1
  70:      1489.93 cm**-1
  71:      1494.40 cm**-1
  72:      1499.14 cm**-1
  73:      1502.72 cm**-1
  74:      1512.00 cm**-1
  75:      1527.40 cm**-1
  76:      1589.59 cm**-1
  77:      1655.40 cm**-1
  78:      1780.36 cm**-1
  79:      1793.14 cm**-1
  80:      3063.89 cm**-1
  81:      3080.94 cm**-1
  82:      3086.85 cm**-1
  83:      3088.54 cm**-1
  84:      3092.04 cm**-1
  85:      3105.11 cm**-1
  86:      3113.25 cm**-1
  87:      3131.21 cm**-1
  88:      3149.09 cm**-1
  89:      3161.90 cm**-1
  90:      3166.78 cm**-1
  91:      3175.34 cm**-1
  92:      3193.04 cm**-1
  93:      3196.73 cm**-1
  94:      3199.94 cm**-1
  95:      3508.60 cm**-1
  96:      3601.44 cm**-1
  97:      3638.56 cm**-1
  98:      3643.93 cm**-1

IR SPECTRUM
-----------

 Mode   freq       eps      Int      T**2         TX        TY        TZ
       cm**-1   L/(mol*cm) km/mol    a.u.
----------------------------------------------------------------------------
  6:     29.51   0.001146    5.79  0.012118  (-0.082936 -0.056643 -0.045065)
  7:     41.59   0.000192    0.97  0.001443  ( 0.029727  0.011246 -0.020803)
  8:     64.05   0.000408    2.06  0.001988  ( 0.034091 -0.012555 -0.025839)
  9:     72.28   0.000388    1.96  0.001676  (-0.015620 -0.016200  0.034205)
 10:     86.35   0.003249   16.42  0.011741  (-0.002703 -0.102641  0.034616)
 11:     90.50   0.000085    0.43  0.000292  (-0.001050  0.016913 -0.002164)
 12:    100.59   0.001030    5.20  0.003195  (-0.020492  0.026221 -0.045688)
 13:    107.09   0.000122    0.62  0.000355  (-0.000059  0.016418 -0.009249)
 14:    127.56   0.001471    7.43  0.003598  ( 0.035248  0.034926  0.033703)
 15:    153.67   0.000206    1.04  0.000419  ( 0.007155 -0.004147  0.018731)
 16:    156.44   0.000626    3.17  0.001249  ( 0.026038 -0.008581  0.022310)
 17:    186.98   0.002216   11.20  0.003698  (-0.031537 -0.051983 -0.001045)
 18:    209.82   0.000219    1.11  0.000326  ( 0.016825 -0.001792  0.006303)
 19:    253.99   0.000581    2.94  0.000714  ( 0.020708 -0.002542  0.016686)
 20:    291.56   0.001100    5.56  0.001177  (-0.026895  0.017562 -0.012048)
 21:    309.56   0.002760   13.95  0.002782  (-0.027470 -0.042826  0.013902)
 22:    353.91   0.001360    6.87  0.001199  ( 0.019371  0.027688  0.007566)
 23:    356.27   0.000080    0.40  0.000070  (-0.004301 -0.001398  0.007013)
 24:    366.88   0.000663    3.35  0.000564  (-0.016764  0.010407  0.013210)
 25:    382.42   0.004081   20.63  0.003330  ( 0.028570 -0.027505  0.041924)
 26:    467.36   0.001818    9.19  0.001214  ( 0.032895  0.001143 -0.011422)
 27:    508.55   0.004798   24.25  0.002944  ( 0.022279  0.041993 -0.026163)
 28:    548.55   0.003521   17.79  0.002003  ( 0.026054  0.036372 -0.001183)
 29:    569.86   0.015840   80.05  0.008674  (-0.067185 -0.064315 -0.004917)
 30:    649.62   0.055110  278.50  0.026474  (-0.018094  0.156739  0.039739)
 31:    656.02   0.000387    1.95  0.000184  (-0.005368  0.002660 -0.012164)
 32:    660.80   0.002522   12.74  0.001191  (-0.022828 -0.020185 -0.016194)
 33:    699.62   0.046812  236.57  0.020880  (-0.031460 -0.139003 -0.023849)
 34:    712.44   0.003941   19.92  0.001726  (-0.017607 -0.036260 -0.010080)
 35:    758.62   0.001522    7.69  0.000626  (-0.017843 -0.016389 -0.006239)
 36:    795.68   0.017387   87.87  0.006819  ( 0.014681  0.079934 -0.014629)
 37:    824.70   0.010421   52.66  0.003943  ( 0.010435  0.059564 -0.016923)
 38:    886.74   0.001819    9.19  0.000640  ( 0.008947 -0.011619  0.020621)
 39:    889.95   0.004490   22.69  0.001574  (-0.019497 -0.034122 -0.005477)
 40:    935.16   0.003456   17.46  0.001153  (-0.013700  0.031040 -0.001383)
 41:    994.43   0.001348    6.81  0.000423  (-0.009662 -0.017463 -0.004983)
 42:    999.59   0.005057   25.56  0.001579  ( 0.005071  0.039405  0.000526)
 43:   1017.14   0.001951    9.86  0.000599  ( 0.008136  0.000875  0.023057)
 44:   1032.10   0.003055   15.44  0.000924  (-0.016615 -0.025409  0.001427)
 45:   1044.16   0.023942  120.99  0.007156  (-0.037385 -0.075868  0.001374)
 46:   1061.79   0.001053    5.32  0.000310  ( 0.007138  0.015743 -0.003284)
 47:   1073.20   0.001739    8.79  0.000506  (-0.021716 -0.005201  0.002636)
 48:   1121.98   0.030566  154.47  0.008501  (-0.029291 -0.085371  0.018849)
 49:   1140.10   0.003302   16.69  0.000904  (-0.021580 -0.020595  0.003746)
 50:   1158.84   0.034786  175.80  0.009368  ( 0.004144  0.094519 -0.020412)
 51:   1167.58   0.247839  1252.48  0.066241  (-0.081803 -0.242464  0.027577)
 52:   1185.92   0.025817  130.47  0.006793  (-0.036103 -0.074050  0.002563)
 53:   1190.70   0.002936   14.84  0.000769  (-0.021856  0.010390 -0.013556)
 54:   1233.13   0.005101   25.78  0.001291  ( 0.029179  0.012798  0.016601)
 55:   1250.16   0.003487   17.62  0.000871  (-0.012786 -0.020308 -0.017166)
 56:   1252.83   0.010246   51.78  0.002552  ( 0.036345  0.028779  0.020076)
 57:   1262.00   0.096795  489.16  0.023935  (-0.049468 -0.146305  0.009105)
 58:   1279.29   0.003213   16.24  0.000784  ( 0.018653  0.012540  0.016690)
 59:   1292.62   0.010330   52.20  0.002494  (-0.018357 -0.043338 -0.016693)
 60:   1311.35   0.000894    4.52  0.000213  (-0.011823 -0.004221 -0.007424)
 61:   1343.97   0.003673   18.56  0.000853  (-0.016597 -0.023478 -0.005108)
 62:   1350.39   0.000413    2.09  0.000095  (-0.003433 -0.009093 -0.000943)
 63:   1368.99   0.001622    8.20  0.000370  ( 0.002445 -0.001122  0.019041)
 64:   1383.00   0.009497   47.99  0.002143  (-0.026908 -0.020264 -0.031753)
 65:   1407.38   0.020567  103.94  0.004560  (-0.050668 -0.039485 -0.020836)
 66:   1457.09   0.006092   30.79  0.001305  (-0.013501  0.033199  0.004509)
 67:   1470.01   0.007853   39.68  0.001667  (-0.016366 -0.010550 -0.035887)
 68:   1484.05   0.004412   22.29  0.000928  (-0.012178 -0.027812  0.002422)
 69:   1485.91   0.000657    3.32  0.000138  (-0.001409  0.000624  0.011646)
 70:   1489.93   0.007755   39.19  0.001624  ( 0.016848  0.029195  0.022095)
 71:   1494.40   0.033144  167.49  0.006921  (-0.034942 -0.075270  0.005883)
 72:   1499.14   0.010261   51.86  0.002136  (-0.033767 -0.009024 -0.030238)
 73:   1502.72   0.011003   55.60  0.002285  ( 0.030591  0.027942 -0.023839)
 74:   1512.00   0.009559   48.31  0.001973  (-0.023066 -0.005092 -0.037615)
 75:   1527.40   0.132431  669.25  0.027057  ( 0.117714  0.098740  0.058744)
 76:   1589.59   0.050263  254.01  0.009868  ( 0.049692 -0.071044  0.048487)
 77:   1655.40   0.011308   57.15  0.002132  (-0.015393 -0.030711  0.030849)
 78:   1780.36   0.076121  384.68  0.013343  ( 0.070849 -0.042853 -0.080540)
 79:   1793.14   0.019415   98.11  0.003379  (-0.056136 -0.014936 -0.002105)
 80:   3063.89   0.008895   44.95  0.000906  (-0.014595 -0.026324 -0.000236)
 81:   3080.94   0.001275    6.44  0.000129  ( 0.005630 -0.003426  0.009257)
 82:   3086.85   0.004311   21.79  0.000436  (-0.010352  0.010251 -0.014953)
 83:   3088.54   0.000343    1.73  0.000035  ( 0.000163 -0.004542 -0.003737)
 84:   3092.04   0.001354    6.84  0.000137  (-0.010104  0.005440  0.002223)
 85:   3105.11   0.000890    4.50  0.000089  ( 0.005069 -0.003644 -0.007104)
 86:   3113.25   0.000156    0.79  0.000016  ( 0.001856  0.003372 -0.000921)
 87:   3131.21   0.000086    0.43  0.000009  (-0.000109 -0.001682 -0.002384)
 88:   3149.09   0.003046   15.39  0.000302  (-0.004272  0.016293 -0.004256)
 89:   3161.90   0.000940    4.75  0.000093  ( 0.007924  0.005420 -0.000811)
 90:   3166.78   0.000682    3.45  0.000067  ( 0.006598  0.001840 -0.004501)
 91:   3175.34   0.000831    4.20  0.000082  (-0.005990  0.005497 -0.003946)
 92:   3193.04   0.000461    2.33  0.000045  (-0.000815  0.003620  0.005595)
 93:   3196.73   0.000061    0.31  0.000006  ( 0.001666 -0.001727  0.000396)
 94:   3199.94   0.000381    1.93  0.000037  ( 0.005394  0.001313  0.002525)
 95:   3508.60   0.479822  2424.83  0.042677  ( 0.055497  0.191465 -0.054201)
 96:   3601.44   0.046375  234.36  0.004018  ( 0.021493  0.040971 -0.043334)
 97:   3638.56   0.025086  126.77  0.002152  (-0.041961  0.002193 -0.019647)
 98:   3643.93   0.012986   65.63  0.001112  (-0.021551  0.023947  0.008614)

--------------------------
THERMOCHEMISTRY AT 298.15K
--------------------------

Temperature         ... 298.15 K
Pressure            ... 1.00 atm
Total Mass          ... 201.27 AMU

Throughout the following assumptions are being made:
  (1) The electronic state is orbitally nondegenerate
      but the spin degeneracy is treated
  (2) There are no thermally accessible electronically excited states
  (3) Hindered rotations indicated by low frequency modes are not
      treated as such but are treated as vibrations and this may
      cause some error
  (4) All equations used are the standard statistical mechanics
      equations for an ideal gas
  (5) All vibrations are strictly harmonic

freq.      29.51  E(vib)   ...       0.55
freq.      41.59  E(vib)   ...       0.54
freq.      64.05  E(vib)   ...       0.51
freq.      72.28  E(vib)   ...       0.50
freq.      86.35  E(vib)   ...       0.48
freq.      90.50  E(vib)   ...       0.47
freq.     100.59  E(vib)   ...       0.46
freq.     107.09  E(vib)   ...       0.45
freq.     127.56  E(vib)   ...       0.43
freq.     153.67  E(vib)   ...       0.40
freq.     156.44  E(vib)   ...       0.40
freq.     186.98  E(vib)   ...       0.36
freq.     209.82  E(vib)   ...       0.34
freq.     253.99  E(vib)   ...       0.30
freq.     291.56  E(vib)   ...       0.27
freq.     309.56  E(vib)   ...       0.26
freq.     353.91  E(vib)   ...       0.22
freq.     356.27  E(vib)   ...       0.22
freq.     366.88  E(vib)   ...       0.22
freq.     382.42  E(vib)   ...       0.21
freq.     467.36  E(vib)   ...       0.16
freq.     508.55  E(vib)   ...       0.14
freq.     548.55  E(vib)   ...       0.12
freq.     569.86  E(vib)   ...       0.11
freq.     649.62  E(vib)   ...       0.08
freq.     656.02  E(vib)   ...       0.08
freq.     660.80  E(vib)   ...       0.08
freq.     699.62  E(vib)   ...       0.07
freq.     712.44  E(vib)   ...       0.07
freq.     758.62  E(vib)   ...       0.06
freq.     795.68  E(vib)   ...       0.05
freq.     824.70  E(vib)   ...       0.04
freq.     886.74  E(vib)   ...       0.04
freq.     889.95  E(vib)   ...       0.04
freq.     935.16  E(vib)   ...       0.03
freq.     994.43  E(vib)   ...       0.02
freq.     999.59  E(vib)   ...       0.02
freq.    1017.14  E(vib)   ...       0.02
freq.    1032.10  E(vib)   ...       0.02
freq.    1044.16  E(vib)   ...       0.02
freq.    1061.79  E(vib)   ...       0.02
freq.    1073.20  E(vib)   ...       0.02
freq.    1121.98  E(vib)   ...       0.01
freq.    1140.10  E(vib)   ...       0.01
freq.    1158.84  E(vib)   ...       0.01
freq.    1167.58  E(vib)   ...       0.01
freq.    1185.92  E(vib)   ...       0.01
freq.    1190.70  E(vib)   ...       0.01
freq.    1233.13  E(vib)   ...       0.01
freq.    1250.16  E(vib)   ...       0.01
freq.    1252.83  E(vib)   ...       0.01
freq.    1262.00  E(vib)   ...       0.01
freq.    1279.29  E(vib)   ...       0.01
freq.    1292.62  E(vib)   ...       0.01
freq.    1311.35  E(vib)   ...       0.01
freq.    1343.97  E(vib)   ...       0.01
freq.    1350.39  E(vib)   ...       0.01
freq.    1368.99  E(vib)   ...       0.01
freq.    1383.00  E(vib)   ...       0.01
freq.    1407.38  E(vib)   ...       0.00
freq.    1457.09  E(vib)   ...       0.00
freq.    1470.01  E(vib)   ...       0.00
freq.    1484.05  E(vib)   ...       0.00
freq.    1485.91  E(vib)   ...       0.00
freq.    1489.93  E(vib)   ...       0.00
freq.    1494.40  E(vib)   ...       0.00
freq.    1499.14  E(vib)   ...       0.00
freq.    1502.72  E(vib)   ...       0.00
freq.    1512.00  E(vib)   ...       0.00
freq.    1527.40  E(vib)   ...       0.00
freq.    1589.59  E(vib)   ...       0.00
freq.    1655.40  E(vib)   ...       0.00
freq.    1780.36  E(vib)   ...       0.00
freq.    1793.14  E(vib)   ...       0.00
freq.    3063.89  E(vib)   ...       0.00
freq.    3080.94  E(vib)   ...       0.00
freq.    3086.85  E(vib)   ...       0.00
freq.    3088.54  E(vib)   ...       0.00
freq.    3092.04  E(vib)   ...       0.00
freq.    3105.11  E(vib)   ...       0.00
freq.    3113.25  E(vib)   ...       0.00
freq.    3131.21  E(vib)   ...       0.00
freq.    3149.09  E(vib)   ...       0.00
freq.    3161.90  E(vib)   ...       0.00
freq.    3166.78  E(vib)   ...       0.00
freq.    3175.34  E(vib)   ...       0.00
freq.    3193.04  E(vib)   ...       0.00
freq.    3196.73  E(vib)   ...       0.00
freq.    3199.94  E(vib)   ...       0.00
freq.    3508.60  E(vib)   ...       0.00
freq.    3601.44  E(vib)   ...       0.00
freq.    3638.56  E(vib)   ...       0.00
freq.    3643.93  E(vib)   ...       0.00

------------
INNER ENERGY
------------

The inner energy is: U= E(el) + E(ZPE) + E(vib) + E(rot) + E(trans)
    E(el)   - is the total energy from the electronic structure calculation
              = E(kin-el) + E(nuc-el) + E(el-el) + E(nuc-nuc)
    E(ZPE)  - the the zero temperature vibrational energy from the frequency calculation
    E(vib)  - the the finite temperature correction to E(ZPE) due to population
              of excited vibrational states
    E(rot)  - is the rotational thermal energy
    E(trans)- is the translational thermal energy

Summary of contributions to the inner energy U:
Electronic energy                ...   -668.79698484 Eh
Zero point energy                ...      0.29016023 Eh     182.08 kcal/mol
Thermal vibrational correction   ...      0.01446863 Eh       9.08 kcal/mol
Thermal rotational correction    ...      0.00141627 Eh       0.89 kcal/mol
Thermal translational correction ...      0.00141627 Eh       0.89 kcal/mol
-----------------------------------------------------------------------
Total thermal energy                   -668.48952344 Eh

Summary of corrections to the electronic energy:
(perhaps to be used in another calculation)
Total thermal correction                  0.01730117 Eh      10.86 kcal/mol
Non-thermal (ZPE) correction              0.29016023 Eh     182.08 kcal/mol
-----------------------------------------------------------------------
Total correction                          0.30746140 Eh     192.93 kcal/mol

--------
ENTHALPY
--------

The enthalpy is H = U + kB*T
                kB is Boltzmann's constant
Total free energy                 ...   -668.48952344 Eh
Thermal Enthalpy correction       ...      0.00094421 Eh       0.59 kcal/mol
-----------------------------------------------------------------------
Total Enthalpy                    ...   -668.48857923 Eh

Note: Only C1 symmetry has been detected, increase convergence thresholds
      if your molecule has a higher symmetry. Symmetry factor of 1.0 is
      used for the rotational entropy correction.

Note: Rotational entropy computed according to Herzberg

Rotational constants in cm-1:     0.019659     0.014177     0.009394

                             ****ORCA TERMINATED NORMALLY****
TOTAL RUN TIME: 0 days 0 hours 33 minutes 52 seconds 337 msec
