                         Program Version 5.0.4 -  RELEASE  -
|  1> ! B3LYP EPR-II OPT
|  2> %pal nprocs 16 end
|  3> *XYZFile 1 2 model.xyz
|  4>
|  5>                          ****END OF INPUT****
 Total Charge           Charge          ....    1
 Multiplicity           Mult            ....    2
 Number of Electrons    NEL             ....  109
FINAL SINGLE POINT ENERGY      -668.590728019427
FINAL SINGLE POINT ENERGY      -668.593172910764
FINAL SINGLE POINT ENERGY      -668.593614198759
FINAL SINGLE POINT ENERGY      -668.593815298180
FINAL SINGLE POINT ENERGY      -668.593912461346
FINAL SINGLE POINT ENERGY      -668.593975086688
FINAL SINGLE POINT ENERGY      -668.594012466184
FINAL SINGLE POINT ENERGY      -668.594043778652
FINAL SINGLE POINT ENERGY      -668.594071624531
FINAL SINGLE POINT ENERGY      -668.594103604027
FINAL SINGLE POINT ENERGY      -668.594140512754
FINAL SINGLE POINT ENERGY      -668.594182484909
FINAL SINGLE POINT ENERGY      -668.594216686778
FINAL SINGLE POINT ENERGY      -668.594234276855
FINAL SINGLE POINT ENERGY      -668.594240568995
FINAL SINGLE POINT ENERGY      -668.594242941637
                    ***********************HURRAY********************

CARTESIAN COORDINATES (ANGSTROEM)
---------------------------------
  N     -7.879860    0.843240    0.071065
  C     -6.449482    0.845818    0.186081
  C     -6.126094    0.866142    1.696700
  O     -6.908102    1.402274    2.482423
  C     -5.746994    2.065249   -0.542217
  C     -6.156621    3.442635   -0.012386
  C     -5.508050    4.540574   -0.882534
  C     -5.973071    5.968803   -0.388244
  N     -5.402749    7.015754   -1.178681
  H     -8.388148    1.136328    0.901543
  C     -8.537574    0.491782   -1.099980
  N     -4.942953    0.304118    2.049696
  H     -4.428098   -0.206486    1.345853
  O     -7.889606    0.213118   -2.105279
  H     -4.432712    7.277793   -1.049939
  C     -4.508485    0.184487    3.444424
  H     -4.752321   -0.803202    3.848785
  H     -3.429030    0.341188    3.503225
  H     -5.025173    0.942830    4.032353
  C    -10.052365    0.456138   -1.036209
  H    -10.455672    0.878457   -1.958386
  H    -10.367606   -0.591325   -0.985052
  H    -10.460211    0.986199   -0.172211
  H     -6.062276   -0.046340   -0.320701
  H     -4.664645    1.923285   -0.453069
  H     -6.009003    1.952906   -1.599745
  H     -5.851638    3.572678    1.031228
  H     -7.247444    3.543062   -0.042677
  H     -4.415740    4.492883   -0.822265
  H     -5.793009    4.422397   -1.933180
  H     -5.664225    6.094830    0.653862
  H     -7.063013    6.027826   -0.450814
  H     -5.805282    7.250238   -2.078161

 Multiplicity           Mult            ....    2
 Number of Electrons    NEL             ....  109
 Basis Dimension        Dim             ....  371

ORBITAL ENERGIES
----------------
                 SPIN UP ORBITALS
  NO   OCC          E(Eh)            E(eV)
   0   1.0000     -19.249607      -523.8084
   1   1.0000     -19.249220      -523.7979
   2   1.0000     -14.540588      -395.6695
   3   1.0000     -14.509683      -394.8286
   4   1.0000     -14.497957      -394.5095
   5   1.0000     -10.429181      -283.7924
   6   1.0000     -10.425967      -283.7050
   7   1.0000     -10.383578      -282.5515
   8   1.0000     -10.381090      -282.4838
   9   1.0000     -10.344156      -281.4788
  10   1.0000     -10.333628      -281.1923
  11   1.0000     -10.328259      -281.0462
  12   1.0000     -10.327997      -281.0391
  13   1.0000     -10.300696      -280.2962
  14   1.0000      -1.176360       -32.0104
  15   1.0000      -1.167097       -31.7583
  16   1.0000      -1.087751       -29.5992
  17   1.0000      -1.065693       -28.9990
  18   1.0000      -1.054453       -28.6931
  19   1.0000      -0.945903       -25.7393
  20   1.0000      -0.903605       -24.5884
  21   1.0000      -0.857821       -23.3425
  22   1.0000      -0.842697       -22.9310
  23   1.0000      -0.809792       -22.0356
  24   1.0000      -0.771614       -20.9967
  25   1.0000      -0.741328       -20.1726
  26   1.0000      -0.719806       -19.5869
  27   1.0000      -0.707163       -19.2429
  28   1.0000      -0.706239       -19.2178
  29   1.0000      -0.665971       -18.1220
  30   1.0000      -0.634691       -17.2708
  31   1.0000      -0.615753       -16.7555
  32   1.0000      -0.611597       -16.6424
  33   1.0000      -0.601923       -16.3792
  34   1.0000      -0.595006       -16.1909
  35   1.0000      -0.580375       -15.7928
  36   1.0000      -0.571155       -15.5419
  37   1.0000      -0.565104       -15.3773
  38   1.0000      -0.556252       -15.1364
  39   1.0000      -0.548304       -14.9201
  40   1.0000      -0.533736       -14.5237
  41   1.0000      -0.527229       -14.3466
  42   1.0000      -0.512915       -13.9571
  43   1.0000      -0.510318       -13.8865
  44   1.0000      -0.508588       -13.8394
  45   1.0000      -0.504737       -13.7346
  46   1.0000      -0.494218       -13.4483
  47   1.0000      -0.489276       -13.3139
  48   1.0000      -0.478679       -13.0255
  49   1.0000      -0.472914       -12.8686
  50   1.0000      -0.434003       -11.8098
  51   1.0000      -0.408980       -11.1289
  52   1.0000      -0.397671       -10.8212
  53   1.0000      -0.386688       -10.5223
  54   1.0000      -0.385591       -10.4925
  55   0.0000      -0.121718        -3.3121
  56   0.0000      -0.115039        -3.1304
  57   0.0000      -0.105635        -2.8745
  58   0.0000      -0.098930        -2.6920
  59   0.0000      -0.089833        -2.4445

                 SPIN DOWN ORBITALS
  NO   OCC          E(Eh)            E(eV)
   0   1.0000     -19.248597      -523.7810
   1   1.0000     -19.246499      -523.7239
   2   1.0000     -14.531079      -395.4108
   3   1.0000     -14.505560      -394.7164
   4   1.0000     -14.496926      -394.4814
   5   1.0000     -10.429278      -283.7951
   6   1.0000     -10.426782      -283.7272
   7   1.0000     -10.383289      -282.5436
   8   1.0000     -10.380552      -282.4692
   9   1.0000     -10.342472      -281.4330
  10   1.0000     -10.332682      -281.1666
  11   1.0000     -10.328247      -281.0459
  12   1.0000     -10.327607      -281.0285
  13   1.0000     -10.300664      -280.2953
  14   1.0000      -1.173252       -31.9258
  15   1.0000      -1.163074       -31.6488
  16   1.0000      -1.068388       -29.0723
  17   1.0000      -1.057451       -28.7747
  18   1.0000      -1.052140       -28.6302
  19   1.0000      -0.941427       -25.6175
  20   1.0000      -0.898605       -24.4523
  21   1.0000      -0.854407       -23.2496
  22   1.0000      -0.840893       -22.8819
  23   1.0000      -0.806606       -21.9489
  24   1.0000      -0.768019       -20.8989
  25   1.0000      -0.738482       -20.0951
  26   1.0000      -0.718510       -19.5517
  27   1.0000      -0.704576       -19.1725
  28   1.0000      -0.700348       -19.0574
  29   1.0000      -0.664332       -18.0774
  30   1.0000      -0.629443       -17.1280
  31   1.0000      -0.613254       -16.6875
  32   1.0000      -0.607802       -16.5391
  33   1.0000      -0.595224       -16.1969
  34   1.0000      -0.593028       -16.1371
  35   1.0000      -0.577954       -15.7269
  36   1.0000      -0.568422       -15.4676
  37   1.0000      -0.555042       -15.1035
  38   1.0000      -0.552348       -15.0301
  39   1.0000      -0.544487       -14.8162
  40   1.0000      -0.531668       -14.4674
  41   1.0000      -0.520729       -14.1697
  42   1.0000      -0.512021       -13.9328
  43   1.0000      -0.509717       -13.8701
  44   1.0000      -0.504315       -13.7231
  45   1.0000      -0.503665       -13.7054
  46   1.0000      -0.488141       -13.2830
  47   1.0000      -0.486387       -13.2353
  48   1.0000      -0.476246       -12.9593
  49   1.0000      -0.463674       -12.6172
  50   1.0000      -0.397787       -10.8243
  51   1.0000      -0.388015       -10.5584
  52   1.0000      -0.381826       -10.3900
  53   1.0000      -0.367343        -9.9959
  54   0.0000      -0.338407        -9.2085
  55   0.0000      -0.119103        -3.2409
  56   0.0000      -0.112786        -3.0691
  57   0.0000      -0.101382        -2.7588
  58   0.0000      -0.097616        -2.6563

MULLIKEN ATOMIC CHARGES AND SPIN POPULATIONS
--------------------------------------------
   0 N :   -0.061037    0.208171
   1 C :   -0.133817    0.018771
   2 C :    0.091073   -0.007238
   3 O :   -0.289591    0.039094
   4 C :   -0.266703    0.052915
   5 C :   -0.224600    0.017879
   6 C :   -0.292019    0.085083
   7 C :   -0.268192    0.004850
   8 N :   -0.290741    0.477180
   9 H :    0.275035   -0.007852
  10 C :    0.168798   -0.045847
  11 N :   -0.093002    0.045795
  12 H :    0.247617   -0.001665
  13 O :   -0.241135    0.107242
  14 H :    0.290113   -0.015533
  15 C :   -0.434469    0.001008
  16 H :    0.191753    0.002940
  17 H :    0.172224    0.002302
  18 H :    0.201896    0.000264
  19 C :   -0.522613    0.002330
  20 H :    0.201637   -0.000724
  21 H :    0.207474   -0.001179
  22 H :    0.158854   -0.000408
  23 H :    0.183785    0.013798
  24 H :    0.163184   -0.001299
  25 H :    0.196031    0.002627
  26 H :    0.172359    0.000721
  27 H :    0.157033   -0.000761
  28 H :    0.174892   -0.001150
  29 H :    0.175013   -0.002770
  30 H :    0.199691    0.010649
  31 H :    0.197645    0.008305
  32 H :    0.291814   -0.015500
Sum of atomic charges         :    1.0000000

LOEWDIN ATOMIC CHARGES AND SPIN POPULATIONS
-------------------------------------------
   0 N :    0.132169    0.174173
   1 C :   -0.030918    0.035791
   2 C :   -0.096524    0.000854
   3 O :   -0.159157    0.035578
   4 C :   -0.026191    0.045359
   5 C :   -0.056043    0.018310
   6 C :   -0.044978    0.078298
   7 C :   -0.013289    0.034940
   8 N :    0.174957    0.413617
   9 H :    0.105997    0.002015
  10 C :   -0.079823   -0.024646
  11 N :    0.072267    0.039652
  12 H :    0.089244    0.000288
  13 O :   -0.118958    0.100440
  14 H :    0.090844    0.004312
  15 C :    0.033126    0.002396
  16 H :    0.044466    0.002428
  17 H :    0.041348    0.002033
  18 H :    0.056170    0.000475
  19 C :   -0.020923    0.000366
  20 H :    0.063602   -0.000566
  21 H :    0.069056   -0.001181
  22 H :    0.042236   -0.000347
  23 H :    0.077457    0.010462
  24 H :    0.055005    0.000119
  25 H :    0.066598    0.003271
  26 H :    0.057191    0.000726
  27 H :    0.053689    0.000367
  28 H :    0.052335    0.000086
  29 H :    0.053046   -0.000507
  30 H :    0.063199    0.009423
  31 H :    0.061511    0.007103
  32 H :    0.091291    0.004367

  Mayer bond orders larger than 0.100000
B(  0-N ,  1-C ) :   1.0641 B(  0-N ,  8-N ) :   0.1234 B(  0-N ,  9-H ) :   0.8731
B(  0-N , 10-C ) :   1.1420 B(  1-C ,  2-C ) :   0.8869 B(  1-C ,  4-C ) :   0.8877
B(  1-C , 13-O ) :   0.1215 B(  1-C , 23-H ) :   0.9494 B(  2-C ,  3-O ) :   1.8578
B(  2-C , 11-N ) :   1.2239 B(  4-C ,  5-C ) :   0.9596 B(  4-C , 24-H ) :   0.9619
B(  4-C , 25-H ) :   0.9459 B(  5-C ,  6-C ) :   0.9445 B(  5-C , 26-H ) :   0.9565
B(  5-C , 27-H ) :   0.9688 B(  6-C ,  7-C ) :   0.8836 B(  6-C , 28-H ) :   0.9622
B(  6-C , 29-H ) :   0.9622 B(  7-C ,  8-N ) :   1.0475 B(  7-C , 30-H ) :   0.9400
B(  7-C , 31-H ) :   0.9440 B(  8-N , 14-H ) :   0.9104 B(  8-N , 32-H ) :   0.9097
B( 10-C , 13-O ) :   1.8999 B( 10-C , 19-C ) :   0.9205 B( 11-N , 12-H ) :   0.9212
B( 11-N , 15-C ) :   0.9589 B( 15-C , 16-H ) :   0.9473 B( 15-C , 17-H ) :   0.9548
B( 15-C , 18-H ) :   0.9440 B( 19-C , 20-H ) :   0.9516 B( 19-C , 21-H ) :   0.9384
B( 19-C , 22-H ) :   0.9686

FINAL SINGLE POINT ENERGY      -668.594243102771

DIPOLE MOMENT
-------------
                                X             Y             Z
Electronic contribution:     -2.71752      -6.41406      -0.24996
Nuclear contribution   :      4.24791       9.25634      -0.22468
                        -----------------------------------------
Total Dipole Moment    :      1.53039       2.84227      -0.47463
                        -----------------------------------------
Magnitude (a.u.)       :      3.26280
Magnitude (Debye)      :      8.29339

Rotational constants in cm-1:     0.019656     0.013095     0.008918
Rotational constants in MHz :   589.273231   392.571423   267.346542

                             ****ORCA TERMINATED NORMALLY****
TOTAL RUN TIME: 0 days 0 hours 26 minutes 42 seconds 479 msec
