                         Program Version 5.0.4 -  RELEASE  -
|  1> ! B3LYP EPR-II AUTOAUX
|  2> %pal nprocs 16 end
|  3> *XYZFile 0 2 opt.xyz
|  4> %EPRNMR
|  5>         GTENSOR   TRUE
|  6>         NUCLEI    = 1,7,9,10,11,12,15,26,27 {SHIFT, AISO, ADIP, AORB}
|  7>         ORI       GIAO
|  8> END
|  9>
| 10>                          ****END OF INPUT****

CARTESIAN COORDINATES (ANGSTROEM)
---------------------------------
  N     -4.534350   -4.734546   -0.781879
  C     -3.084771   -4.743080   -0.799580
  C     -2.617344   -4.583067    0.665565
  O     -3.417022   -4.360173    1.576271
  C     -2.492930   -3.641098   -1.732537
  C     -2.794590   -2.248238   -1.289811
  H     -3.786369   -1.993587   -0.929816
  C     -1.857750   -1.138476   -1.340756
  O     -0.602155   -1.483196   -1.776714
  O     -2.131410    0.015821   -1.026861
  H     -4.949759   -4.539250    0.121419
  H     -2.737663   -5.708174   -1.190482
  C     -5.274172   -5.216982   -1.827540
  N     -1.278978   -4.698979    0.874364
  H     -0.091994   -0.658540   -1.772230
  H     -0.670527   -4.838923    0.083422
  O     -4.752352   -5.594160   -2.877892
  C     -6.784092   -5.239695   -1.620554
  H     -7.246900   -4.585643   -2.364934
  H     -7.142934   -6.255582   -1.805132
  H     -7.091341   -4.920971   -0.621182
  C     -0.687172   -4.503354    2.196732
  H     -1.134998   -5.190411    2.919000
  H      0.384684   -4.697969    2.131605
  H     -0.847947   -3.480499    2.550745
  H     -1.414833   -3.778198   -1.852345
  H     -2.940720   -3.824808   -2.721032

 Total Charge           Charge          ....    0
 Multiplicity           Mult            ....    2
 Number of Electrons    NEL             ....  107
 Basis Dimension        Dim             ....  329

ORBITAL ENERGIES
----------------
                 SPIN UP ORBITALS
  NO   OCC          E(Eh)            E(eV)
   0   1.0000     -19.191241      -522.2202
   1   1.0000     -19.141115      -520.8562
   2   1.0000     -19.131690      -520.5997
   3   1.0000     -19.111024      -520.0374
   4   1.0000     -14.379524      -391.2867
   5   1.0000     -14.360783      -390.7768
   6   1.0000     -10.327905      -281.0366
   7   1.0000     -10.312214      -280.6096
   8   1.0000     -10.298372      -280.2330
   9   1.0000     -10.256169      -279.0845
  10   1.0000     -10.236606      -278.5522
  11   1.0000     -10.231553      -278.4147
  12   1.0000     -10.215154      -277.9685
  13   1.0000     -10.192955      -277.3644
  14   1.0000      -1.104056       -30.0429
  15   1.0000      -1.055266       -28.7152
  16   1.0000      -1.033470       -28.1221
  17   1.0000      -1.015540       -27.6343
  18   1.0000      -0.939088       -25.5539
  19   1.0000      -0.928822       -25.2745
  20   1.0000      -0.820144       -22.3173
  21   1.0000      -0.764269       -20.7968
  22   1.0000      -0.734442       -19.9852
  23   1.0000      -0.707800       -19.2602
  24   1.0000      -0.658002       -17.9051
  25   1.0000      -0.607498       -16.5309
  26   1.0000      -0.606474       -16.5030
  27   1.0000      -0.579915       -15.7803
  28   1.0000      -0.547788       -14.9061
  29   1.0000      -0.510035       -13.8788
  30   1.0000      -0.491811       -13.3828
  31   1.0000      -0.483419       -13.1545
  32   1.0000      -0.476595       -12.9688
  33   1.0000      -0.472480       -12.8568
  34   1.0000      -0.462784       -12.5930
  35   1.0000      -0.455801       -12.4030
  36   1.0000      -0.454605       -12.3704
  37   1.0000      -0.439074       -11.9478
  38   1.0000      -0.431535       -11.7427
  39   1.0000      -0.413783       -11.2596
  40   1.0000      -0.411193       -11.1891
  41   1.0000      -0.409779       -11.1506
  42   1.0000      -0.402332       -10.9480
  43   1.0000      -0.396612       -10.7924
  44   1.0000      -0.382131       -10.3983
  45   1.0000      -0.378711       -10.3053
  46   1.0000      -0.354634        -9.6501
  47   1.0000      -0.334248        -9.0953
  48   1.0000      -0.287097        -7.8123
  49   1.0000      -0.280509        -7.6330
  50   1.0000      -0.279861        -7.6154
  51   1.0000      -0.266499        -7.2518
  52   1.0000      -0.256910        -6.9909
  53   1.0000      -0.238263        -6.4835
  54   0.0000      -0.004092        -0.1113
  55   0.0000       0.005346         0.1455
  56   0.0000       0.018086         0.4922
  57   0.0000       0.019280         0.5246
  58   0.0000       0.028604         0.7784

                 SPIN DOWN ORBITALS
  NO   OCC          E(Eh)            E(eV)
   0   1.0000     -19.190869      -522.2101
   1   1.0000     -19.135867      -520.7134
   2   1.0000     -19.131641      -520.5984
   3   1.0000     -19.110872      -520.0333
   4   1.0000     -14.379521      -391.2867
   5   1.0000     -14.360743      -390.7757
   6   1.0000     -10.329051      -281.0678
   7   1.0000     -10.312207      -280.6094
   8   1.0000     -10.298390      -280.2334
   9   1.0000     -10.255535      -279.0673
  10   1.0000     -10.231552      -278.4147
  11   1.0000     -10.224795      -278.2308
  12   1.0000     -10.215757      -277.9849
  13   1.0000     -10.192952      -277.3643
  14   1.0000      -1.101146       -29.9637
  15   1.0000      -1.055131       -28.7116
  16   1.0000      -1.033250       -28.1162
  17   1.0000      -1.008007       -27.4293
  18   1.0000      -0.939048       -25.5528
  19   1.0000      -0.928368       -25.2622
  20   1.0000      -0.809741       -22.0342
  21   1.0000      -0.755186       -20.5496
  22   1.0000      -0.733993       -19.9730
  23   1.0000      -0.702766       -19.1232
  24   1.0000      -0.655586       -17.8394
  25   1.0000      -0.606856       -16.5134
  26   1.0000      -0.600774       -16.3479
  27   1.0000      -0.577142       -15.7048
  28   1.0000      -0.547254       -14.8916
  29   1.0000      -0.507385       -13.8066
  30   1.0000      -0.487969       -13.2783
  31   1.0000      -0.483176       -13.1479
  32   1.0000      -0.472406       -12.8548
  33   1.0000      -0.469550       -12.7771
  34   1.0000      -0.461238       -12.5509
  35   1.0000      -0.453478       -12.3398
  36   1.0000      -0.445062       -12.1107
  37   1.0000      -0.433917       -11.8075
  38   1.0000      -0.429626       -11.6907
  39   1.0000      -0.413150       -11.2424
  40   1.0000      -0.408461       -11.1148
  41   1.0000      -0.407645       -11.0926
  42   1.0000      -0.399804       -10.8792
  43   1.0000      -0.394335       -10.7304
  44   1.0000      -0.380584       -10.3562
  45   1.0000      -0.377021       -10.2593
  46   1.0000      -0.353632        -9.6228
  47   1.0000      -0.316099        -8.6015
  48   1.0000      -0.282343        -7.6829
  49   1.0000      -0.279214        -7.5978
  50   1.0000      -0.277708        -7.5568
  51   1.0000      -0.262277        -7.1369
  52   1.0000      -0.256241        -6.9727
  53   0.0000      -0.119363        -3.2480
  54   0.0000      -0.003509        -0.0955
  55   0.0000       0.005517         0.1501
  56   0.0000       0.018272         0.4972
  57   0.0000       0.019501         0.5306

MULLIKEN ATOMIC CHARGES AND SPIN POPULATIONS
--------------------------------------------
   0 N :   -0.118487    0.001235
   1 C :   -0.134850    0.023119
   2 C :    0.110267    0.000302
   3 O :   -0.328864    0.002569
   4 C :   -0.277124   -0.047678
   5 C :   -0.034178    0.852769
   6 H :    0.166817   -0.039578
   7 C :    0.068799   -0.052692
   8 O :   -0.291341    0.013693
   9 O :   -0.270543    0.192456
  10 H :    0.256887   -0.000044
  11 H :    0.172128    0.002149
  12 C :    0.177289   -0.001192
  13 N :   -0.104655   -0.000659
  14 H :    0.289420   -0.001728
  15 H :    0.236294    0.000149
  16 O :   -0.322009    0.004487
  17 C :   -0.552427    0.000176
  18 H :    0.187196   -0.000015
  19 H :    0.188203    0.000008
  20 H :    0.151216    0.000029
  21 C :   -0.436219   -0.000078
  22 H :    0.185855    0.000051
  23 H :    0.144820    0.000005
  24 H :    0.183233    0.000015
  25 H :    0.152008    0.004989
  26 H :    0.200265    0.045461
Sum of atomic charges         :   -0.0000000

LOEWDIN ATOMIC CHARGES AND SPIN POPULATIONS
-------------------------------------------
   0 N :    0.061530    0.002020
   1 C :   -0.040970    0.023828
   2 C :   -0.090768    0.003543
   3 O :   -0.181484    0.001703
   4 C :   -0.050559    0.011060
   5 C :    0.045165    0.695473
   6 H :    0.064035    0.003881
   7 C :   -0.119724    0.011239
   8 O :   -0.010630    0.013512
   9 O :   -0.143605    0.184821
  10 H :    0.092270    0.000215
  11 H :    0.070281    0.001584
  12 C :   -0.101329   -0.000120
  13 N :    0.044449    0.000183
  14 H :    0.099513   -0.000221
  15 H :    0.080793    0.000253
  16 O :   -0.194403    0.004505
  17 C :   -0.039777    0.000132
  18 H :    0.055667    0.000001
  19 H :    0.055710   -0.000017
  20 H :    0.035050    0.000025
  21 C :    0.015343    0.000124
  22 H :    0.042219   -0.000006
  23 H :    0.033686    0.000006
  24 H :    0.040677   -0.000013
  25 H :    0.055106    0.004041
  26 H :    0.081755    0.038229

  Mayer bond orders larger than 0.100000
B(  0-N ,  1-C ) :   1.0323 B(  0-N , 10-H ) :   0.8871 B(  0-N , 12-C ) :   1.2015
B(  1-C ,  2-C ) :   0.9002 B(  1-C ,  4-C ) :   0.9363 B(  1-C , 11-H ) :   0.9633
B(  1-C , 16-O ) :   0.1382 B(  2-C ,  3-O ) :   1.8403 B(  2-C , 13-N ) :   1.2163
B(  4-C ,  5-C ) :   1.0109 B(  4-C , 25-H ) :   0.9557 B(  4-C , 26-H ) :   0.9274
B(  5-C ,  6-H ) :   0.9830 B(  5-C ,  7-C ) :   1.1172 B(  5-C ,  9-O ) :   0.1154
B(  7-C ,  8-O ) :   1.0838 B(  7-C ,  9-O ) :   1.8593 B(  8-O , 14-H ) :   0.8965
B( 12-C , 16-O ) :   1.8542 B( 12-C , 17-C ) :   0.8975 B( 13-N , 15-H ) :   0.9312
B( 13-N , 21-C ) :   0.9604 B( 17-C , 18-H ) :   0.9566 B( 17-C , 19-H ) :   0.9578
B( 17-C , 20-H ) :   0.9747 B( 21-C , 22-H ) :   0.9517 B( 21-C , 23-H ) :   0.9673
B( 21-C , 24-H ) :   0.9501

FINAL SINGLE POINT ENERGY      -722.849815064514

DIPOLE MOMENT
-------------
                                X             Y             Z
Electronic contribution:      1.74979       5.20857      -2.76657
Nuclear contribution   :     -0.63441      -5.85175       3.29541
                        -----------------------------------------
Total Dipole Moment    :      1.11538      -0.64318       0.52884
                        -----------------------------------------
Magnitude (a.u.)       :      1.39192
Magnitude (Debye)      :      3.53797

Rotational constants in cm-1:     0.024094     0.014963     0.010912
Rotational constants in MHz :   722.309000   448.576761   327.141162

CHEMICAL SHIELDING SUMMARY (ppm)  --  Orbital contribution
----------------------------------------------------------

  Nucleus  Element    Isotropic     Anisotropy
  -------  -------  ------------   ------------
      0       N          129.235        113.834
      6       H           26.269          8.818
      8       O          130.270        175.817
      9       O         -132.807       -436.882
     10       H           25.143          7.497
     11       H           27.565          4.778
     14       H           26.348         11.054
     25       H           29.146          5.327
     26       H           28.121          6.390

                             ****ORCA TERMINATED NORMALLY****
TOTAL RUN TIME: 0 days 0 hours 4 minutes 2 seconds 452 msec
