                         Program Version 5.0.4 -  RELEASE  -
|  1> ! M062X def2-TZVP OPT FREQ
|  2> %pal nprocs 16 end
|  3> *XYZFile 0 2 opt.xyz
|  4>
|  5>                          ****END OF INPUT****
 Total Charge           Charge          ....    0
 Multiplicity           Mult            ....    2
 Number of Electrons    NEL             ....  107
FINAL SINGLE POINT ENERGY      -723.079229359569
FINAL SINGLE POINT ENERGY      -723.082556773275
FINAL SINGLE POINT ENERGY      -723.082680525573
FINAL SINGLE POINT ENERGY      -723.082691113892
FINAL SINGLE POINT ENERGY      -723.082830939571
FINAL SINGLE POINT ENERGY      -723.083186802197
FINAL SINGLE POINT ENERGY      -723.083437702774
FINAL SINGLE POINT ENERGY      -723.083752630167
FINAL SINGLE POINT ENERGY      -723.083911616948
FINAL SINGLE POINT ENERGY      -723.083378503584
FINAL SINGLE POINT ENERGY      -723.083942405438
FINAL SINGLE POINT ENERGY      -723.083945707132
FINAL SINGLE POINT ENERGY      -723.083969671092
FINAL SINGLE POINT ENERGY      -723.083977752190
FINAL SINGLE POINT ENERGY      -723.083988809155
FINAL SINGLE POINT ENERGY      -723.083989530425
FINAL SINGLE POINT ENERGY      -723.083988408349
                    ***********************HURRAY********************

CARTESIAN COORDINATES (ANGSTROEM)
---------------------------------
  N     -4.576575   -4.743295   -0.800190
  C     -3.136955   -4.769801   -0.877751
  C     -2.607032   -4.623319    0.553993
  O     -3.337792   -4.776722    1.514858
  C     -2.585389   -3.698102   -1.845049
  C     -2.752706   -2.318885   -1.331793
  H     -3.741087   -1.925050   -1.141039
  C     -1.666030   -1.412741   -1.042637
  O     -0.431760   -1.962080   -1.227758
  O     -1.796238   -0.271440   -0.668497
  H     -4.953494   -4.691207    0.136209
  H     -2.814626   -5.743850   -1.261830
  C     -5.339353   -5.203946   -1.827302
  N     -1.295554   -4.343860    0.678197
  H      0.208309   -1.265907   -1.025122
  H     -0.772094   -4.051001   -0.130120
  O     -4.858596   -5.511748   -2.901188
  C     -6.823880   -5.282924   -1.563963
  H     -7.331564   -4.611173   -2.255287
  H     -7.155663   -6.296369   -1.784026
  H     -7.092984   -5.021576   -0.542661
  C     -0.719819   -4.132547    1.992586
  H     -0.979650   -4.966316    2.641728
  H      0.361126   -4.070536    1.897439
  H     -1.099745   -3.215459    2.446661
  H     -1.539284   -3.902981   -2.070559
  H     -3.141954   -3.828947   -2.777050

 Multiplicity           Mult            ....    2
 Number of Electrons    NEL             ....  107
 Basis Dimension        Dim             ....  512

ORBITAL ENERGIES
----------------
                 SPIN UP ORBITALS
  NO   OCC          E(Eh)            E(eV)
   0   1.0000     -19.685737      -535.6761
   1   1.0000     -19.629385      -534.1427
   2   1.0000     -19.612331      -533.6787
   3   1.0000     -19.596261      -533.2414
   4   1.0000     -14.788025      -402.4026
   5   1.0000     -14.776763      -402.0962
   6   1.0000     -10.684310      -290.7348
   7   1.0000     -10.658653      -290.0367
   8   1.0000     -10.648138      -289.7506
   9   1.0000     -10.606584      -288.6198
  10   1.0000     -10.593316      -288.2588
  11   1.0000     -10.579055      -287.8707
  12   1.0000     -10.565736      -287.5083
  13   1.0000     -10.543946      -286.9153
  14   1.0000      -1.248752       -33.9803
  15   1.0000      -1.187522       -32.3141
  16   1.0000      -1.169308       -31.8185
  17   1.0000      -1.154183       -31.4069
  18   1.0000      -1.051361       -28.6090
  19   1.0000      -1.046402       -28.4741
  20   1.0000      -0.932275       -25.3685
  21   1.0000      -0.868014       -23.6199
  22   1.0000      -0.832443       -22.6519
  23   1.0000      -0.803598       -21.8670
  24   1.0000      -0.753707       -20.5094
  25   1.0000      -0.702245       -19.1090
  26   1.0000      -0.690130       -18.7794
  27   1.0000      -0.664466       -18.0810
  28   1.0000      -0.631940       -17.1960
  29   1.0000      -0.600126       -16.3303
  30   1.0000      -0.593395       -16.1471
  31   1.0000      -0.571534       -15.5522
  32   1.0000      -0.562020       -15.2934
  33   1.0000      -0.557923       -15.1819
  34   1.0000      -0.550262       -14.9734
  35   1.0000      -0.538788       -14.6612
  36   1.0000      -0.535289       -14.5659
  37   1.0000      -0.522803       -14.2262
  38   1.0000      -0.509975       -13.8771
  39   1.0000      -0.494119       -13.4457
  40   1.0000      -0.486902       -13.2493
  41   1.0000      -0.481432       -13.1004
  42   1.0000      -0.474841       -12.9211
  43   1.0000      -0.468437       -12.7468
  44   1.0000      -0.458452       -12.4751
  45   1.0000      -0.447805       -12.1854
  46   1.0000      -0.429949       -11.6995
  47   1.0000      -0.426143       -11.5959
  48   1.0000      -0.376363       -10.2414
  49   1.0000      -0.357325        -9.7233
  50   1.0000      -0.349121        -9.5001
  51   1.0000      -0.338545        -9.2123
  52   1.0000      -0.330241        -8.9863
  53   1.0000      -0.302782        -8.2391
  54   0.0000       0.035344         0.9618
  55   0.0000       0.042873         1.1666
  56   0.0000       0.058102         1.5810
  57   0.0000       0.065867         1.7923
  58   0.0000       0.070157         1.9091

                 SPIN DOWN ORBITALS
  NO   OCC          E(Eh)            E(eV)
   0   1.0000     -19.685558      -535.6713
   1   1.0000     -19.625738      -534.0435
   2   1.0000     -19.612330      -533.6786
   3   1.0000     -19.596195      -533.2396
   4   1.0000     -14.787959      -402.4008
   5   1.0000     -14.776799      -402.0971
   6   1.0000     -10.685171      -290.7583
   7   1.0000     -10.658677      -290.0373
   8   1.0000     -10.648142      -289.7507
   9   1.0000     -10.605841      -288.5996
  10   1.0000     -10.587915      -288.1118
  11   1.0000     -10.579057      -287.8708
  12   1.0000     -10.566280      -287.5231
  13   1.0000     -10.543945      -286.9153
  14   1.0000      -1.245709       -33.8975
  15   1.0000      -1.187439       -32.3119
  16   1.0000      -1.169187       -31.8152
  17   1.0000      -1.146879       -31.2082
  18   1.0000      -1.051148       -28.6032
  19   1.0000      -1.045864       -28.4594
  20   1.0000      -0.919348       -25.0167
  21   1.0000      -0.858018       -23.3479
  22   1.0000      -0.830985       -22.6122
  23   1.0000      -0.799055       -21.7434
  24   1.0000      -0.751620       -20.4526
  25   1.0000      -0.693500       -18.8711
  26   1.0000      -0.689970       -18.7750
  27   1.0000      -0.661985       -18.0135
  28   1.0000      -0.631095       -17.1730
  29   1.0000      -0.596314       -16.2265
  30   1.0000      -0.588649       -16.0180
  31   1.0000      -0.565704       -15.3936
  32   1.0000      -0.559153       -15.2153
  33   1.0000      -0.553473       -15.0608
  34   1.0000      -0.541575       -14.7370
  35   1.0000      -0.537157       -14.6168
  36   1.0000      -0.532677       -14.4949
  37   1.0000      -0.515729       -14.0337
  38   1.0000      -0.506813       -13.7911
  39   1.0000      -0.491767       -13.3817
  40   1.0000      -0.484232       -13.1766
  41   1.0000      -0.477210       -12.9855
  42   1.0000      -0.474206       -12.9038
  43   1.0000      -0.467492       -12.7211
  44   1.0000      -0.457360       -12.4454
  45   1.0000      -0.445931       -12.1344
  46   1.0000      -0.427690       -11.6380
  47   1.0000      -0.403755       -10.9867
  48   1.0000      -0.369166       -10.0455
  49   1.0000      -0.354461        -9.6454
  50   1.0000      -0.345482        -9.4010
  51   1.0000      -0.337966        -9.1965
  52   1.0000      -0.328840        -8.9482
  53   0.0000      -0.083727        -2.2783
  54   0.0000       0.036306         0.9879
  55   0.0000       0.044077         1.1994
  56   0.0000       0.058026         1.5790
  57   0.0000       0.066168         1.8005

MULLIKEN ATOMIC CHARGES AND SPIN POPULATIONS
--------------------------------------------
   0 N :   -0.400290   -0.011458
   1 C :   -0.016454    0.073360
   2 C :    0.330662   -0.010708
   3 O :   -0.404972    0.001388
   4 C :   -0.403952   -0.076389
   5 C :   -0.194743    0.893090
   6 H :    0.197511   -0.030143
   7 C :    0.367899   -0.073042
   8 O :   -0.456254    0.009679
   9 O :   -0.324242    0.189269
  10 H :    0.270486   -0.000271
  11 H :    0.184504    0.003499
  12 C :    0.397426   -0.000617
  13 N :   -0.336006    0.001726
  14 H :    0.343226   -0.002428
  15 H :    0.257717   -0.000349
  16 O :   -0.408784    0.001039
  17 C :   -0.456263   -0.000012
  18 H :    0.160159   -0.000026
  19 H :    0.162284    0.000016
  20 H :    0.131835    0.000047
  21 C :   -0.305909   -0.001303
  22 H :    0.164942    0.000043
  23 H :    0.141607    0.000081
  24 H :    0.162394    0.000655
  25 H :    0.213378   -0.001207
  26 H :    0.221841    0.034060
Sum of atomic charges         :   -0.0000000

LOEWDIN ATOMIC CHARGES AND SPIN POPULATIONS
-------------------------------------------
   0 N :    0.137681    0.000784
   1 C :   -0.234483    0.032022
   2 C :   -0.441516    0.005814
   3 O :    0.064855   -0.000195
   4 C :   -0.238085    0.052005
   5 C :   -0.034492    0.644232
   6 H :    0.154258   -0.002419
   7 C :   -0.538585    0.072763
   8 O :    0.059726    0.007898
   9 O :    0.103866    0.159110
  10 H :    0.196883    0.000282
  11 H :    0.169957    0.002768
  12 C :   -0.477050    0.000084
  13 N :    0.106511    0.003031
  14 H :    0.198826   -0.000853
  15 H :    0.184539    0.000204
  16 O :    0.058296    0.001625
  17 C :   -0.260666    0.000035
  18 H :    0.140098   -0.000003
  19 H :    0.140114    0.000004
  20 H :    0.123296    0.000019
  21 C :   -0.300231    0.000282
  22 H :    0.127006    0.000062
  23 H :    0.118141    0.000002
  24 H :    0.120293    0.000135
  25 H :    0.150088   -0.000014
  26 H :    0.170675    0.020322

  Mayer bond orders larger than 0.100000
B(  0-N ,  1-C ) :   0.8926 B(  0-N , 10-H ) :   0.8768 B(  0-N , 12-C ) :   1.1912
B(  1-C ,  2-C ) :   0.9525 B(  1-C ,  4-C ) :   0.8628 B(  1-C , 11-H ) :   0.9626
B(  2-C ,  3-O ) :   1.9232 B(  2-C , 13-N ) :   1.2434 B(  4-C ,  5-C ) :   0.8758
B(  4-C , 25-H ) :   0.9844 B(  4-C , 26-H ) :   0.9394 B(  5-C ,  6-H ) :   0.9595
B(  5-C ,  7-C ) :   1.1649 B(  7-C ,  8-O ) :   1.0995 B(  7-C ,  9-O ) :   2.0001
B(  8-O , 14-H ) :   0.8598 B( 12-C , 16-O ) :   1.9082 B( 12-C , 17-C ) :   0.9122
B( 13-N , 15-H ) :   0.9020 B( 13-N , 21-C ) :   0.9218 B( 17-C , 18-H ) :   0.9554
B( 17-C , 19-H ) :   0.9619 B( 17-C , 20-H ) :   0.9871 B( 21-C , 22-H ) :   0.9657
B( 21-C , 23-H ) :   0.9652 B( 21-C , 24-H ) :   0.9723

FINAL SINGLE POINT ENERGY      -723.083986275822

DIPOLE MOMENT
-------------
                                X             Y             Z
Electronic contribution:      2.21357       4.06139      -2.14640
Nuclear contribution   :     -1.35053      -4.22133       2.46525
                        -----------------------------------------
Total Dipole Moment    :      0.86304      -0.15994       0.31885
                        -----------------------------------------
Magnitude (a.u.)       :      0.93385
Magnitude (Debye)      :      2.37366

VIBRATIONAL FREQUENCIES
-----------------------

Scaling factor for frequencies =  1.000000000  (already applied!)

   0:         0.00 cm**-1
   1:         0.00 cm**-1
   2:         0.00 cm**-1
   3:         0.00 cm**-1
   4:         0.00 cm**-1
   5:         0.00 cm**-1
   6:        42.09 cm**-1
   7:        57.93 cm**-1
   8:        66.29 cm**-1
   9:        74.88 cm**-1
  10:        85.56 cm**-1
  11:        91.98 cm**-1
  12:       111.89 cm**-1
  13:       131.51 cm**-1
  14:       147.34 cm**-1
  15:       174.04 cm**-1
  16:       195.63 cm**-1
  17:       242.19 cm**-1
  18:       271.17 cm**-1
  19:       301.43 cm**-1
  20:       361.46 cm**-1
  21:       383.48 cm**-1
  22:       488.50 cm**-1
  23:       502.53 cm**-1
  24:       513.87 cm**-1
  25:       543.15 cm**-1
  26:       553.27 cm**-1
  27:       578.65 cm**-1
  28:       602.02 cm**-1
  29:       620.36 cm**-1
  30:       640.11 cm**-1
  31:       664.99 cm**-1
  32:       692.11 cm**-1
  33:       766.39 cm**-1
  34:       804.35 cm**-1
  35:       855.49 cm**-1
  36:       913.93 cm**-1
  37:       933.84 cm**-1
  38:       977.65 cm**-1
  39:      1017.92 cm**-1
  40:      1030.97 cm**-1
  41:      1061.19 cm**-1
  42:      1085.70 cm**-1
  43:      1135.35 cm**-1
  44:      1155.27 cm**-1
  45:      1170.84 cm**-1
  46:      1193.73 cm**-1
  47:      1209.35 cm**-1
  48:      1221.15 cm**-1
  49:      1265.12 cm**-1
  50:      1279.30 cm**-1
  51:      1294.25 cm**-1
  52:      1338.90 cm**-1
  53:      1366.54 cm**-1
  54:      1387.45 cm**-1
  55:      1401.93 cm**-1
  56:      1448.50 cm**-1
  57:      1460.33 cm**-1
  58:      1473.78 cm**-1
  59:      1485.88 cm**-1
  60:      1489.04 cm**-1
  61:      1503.49 cm**-1
  62:      1514.03 cm**-1
  63:      1540.39 cm**-1
  64:      1587.67 cm**-1
  65:      1773.27 cm**-1
  66:      1779.38 cm**-1
  67:      1789.99 cm**-1
  68:      3059.37 cm**-1
  69:      3076.44 cm**-1
  70:      3079.68 cm**-1
  71:      3089.61 cm**-1
  72:      3146.73 cm**-1
  73:      3152.87 cm**-1
  74:      3171.72 cm**-1
  75:      3182.27 cm**-1
  76:      3190.17 cm**-1
  77:      3238.18 cm**-1
  78:      3601.91 cm**-1
  79:      3656.69 cm**-1
  80:      3817.99 cm**-1

IR SPECTRUM
-----------

 Mode   freq       eps      Int      T**2         TX        TY        TZ
       cm**-1   L/(mol*cm) km/mol    a.u.
----------------------------------------------------------------------------
  6:     42.09   0.000204    1.03  0.001512  (-0.013564 -0.017835 -0.031779)
  7:     57.93   0.000102    0.52  0.000549  ( 0.017957  0.004237 -0.014459)
  8:     66.29   0.000285    1.44  0.001344  (-0.009527  0.034639 -0.007280)
  9:     74.88   0.000146    0.74  0.000609  (-0.013542 -0.006846 -0.019456)
 10:     85.56   0.001131    5.71  0.004124  ( 0.016213 -0.060979  0.011960)
 11:     91.98   0.001593    8.05  0.005403  ( 0.001671 -0.070080  0.022114)
 12:    111.89   0.001361    6.88  0.003795  ( 0.043647 -0.035363  0.025287)
 13:    131.51   0.000801    4.05  0.001902  (-0.027920 -0.022679 -0.024656)
 14:    147.34   0.000020    0.10  0.000042  (-0.004770 -0.000629 -0.004376)
 15:    174.04   0.001532    7.74  0.002747  ( 0.034570  0.022386  0.032409)
 16:    195.63   0.001111    5.62  0.001773  (-0.038371  0.014722 -0.009160)
 17:    242.19   0.000273    1.38  0.000352  (-0.005786  0.017440 -0.003755)
 18:    271.17   0.001296    6.55  0.001491  ( 0.036072  0.009505  0.009983)
 19:    301.43   0.000566    2.86  0.000586  (-0.016054  0.014246 -0.011176)
 20:    361.46   0.001071    5.41  0.000924  (-0.018463 -0.005055 -0.023617)
 21:    383.48   0.003604   18.21  0.002932  ( 0.047590 -0.016858  0.019583)
 22:    488.50   0.014521   73.38  0.009276  ( 0.036908 -0.088797 -0.005413)
 23:    502.53   0.000822    4.15  0.000511  ( 0.020747 -0.003806 -0.008099)
 24:    513.87   0.004705   23.78  0.002857  (-0.050658 -0.013346  0.010629)
 25:    543.15   0.005633   28.47  0.003237  ( 0.007260 -0.044261 -0.035000)
 26:    553.27   0.018149   91.72  0.010236  (-0.005044 -0.053469  0.085744)
 27:    578.65   0.010135   51.22  0.005466  (-0.012049  0.072932  0.001323)
 28:    602.02   0.007337   37.08  0.003803  ( 0.056730 -0.024028  0.002723)
 29:    620.36   0.004457   22.52  0.002242  ( 0.040370  0.010971  0.022179)
 30:    640.11   0.002184   11.04  0.001065  ( 0.009845 -0.002803 -0.030982)
 31:    664.99   0.002224   11.24  0.001044  (-0.010470  0.030309  0.003903)
 32:    692.11   0.001547    7.82  0.000698  ( 0.003767  0.024699  0.008564)
 33:    766.39   0.009644   48.74  0.003927  ( 0.002603  0.032831 -0.053312)
 34:    804.35   0.002508   12.68  0.000973  (-0.011807 -0.016214 -0.023893)
 35:    855.49   0.002863   14.47  0.001044  (-0.025098 -0.019416 -0.006108)
 36:    913.93   0.001244    6.28  0.000425  ( 0.002365  0.013774 -0.015143)
 37:    933.84   0.002657   13.43  0.000888  ( 0.027201 -0.003200  0.011738)
 38:    977.65   0.011893   60.10  0.003796  (-0.061547 -0.000267 -0.002852)
 39:   1017.92   0.000673    3.40  0.000206  ( 0.004643 -0.003560 -0.013117)
 40:   1030.97   0.000971    4.91  0.000294  ( 0.002438 -0.013350 -0.010480)
 41:   1061.19   0.001555    7.86  0.000457  ( 0.001342 -0.021016  0.003700)
 42:   1085.70   0.000100    0.51  0.000029  (-0.001813 -0.000653 -0.005004)
 43:   1135.35   0.004958   25.06  0.001363  ( 0.034299  0.011982 -0.006544)
 44:   1155.27   0.000413    2.09  0.000111  ( 0.009310  0.002876  0.004065)
 45:   1170.84   0.005210   26.33  0.001389  ( 0.034551 -0.013620 -0.003066)
 46:   1193.73   0.000518    2.62  0.000135  ( 0.005548  0.008638 -0.005484)
 47:   1209.35   0.032549  164.49  0.008399  (-0.091240  0.003362  0.007936)
 48:   1221.15   0.003921   19.81  0.001002  ( 0.025856  0.018159  0.001924)
 49:   1265.12   0.005713   28.87  0.001409  (-0.033661 -0.014382 -0.008322)
 50:   1279.30   0.011628   58.76  0.002836  (-0.039704 -0.024649 -0.025544)
 51:   1294.25   0.001583    8.00  0.000382  ( 0.000690 -0.010083  0.016718)
 52:   1338.90   0.012126   61.28  0.002826  (-0.042651 -0.025286 -0.019176)
 53:   1366.54   0.003661   18.50  0.000836  (-0.015900 -0.000420 -0.024145)
 54:   1387.45   0.003515   17.76  0.000791  (-0.017779  0.003851  0.021441)
 55:   1401.93   0.007492   37.86  0.001668  ( 0.038844  0.007257  0.010299)
 56:   1448.50   0.006260   31.64  0.001349  (-0.033553  0.014912 -0.000672)
 57:   1460.33   0.003150   15.92  0.000673  ( 0.024608  0.007834  0.002482)
 58:   1473.78   0.001494    7.55  0.000316  (-0.000086  0.017709 -0.001646)
 59:   1485.88   0.013477   68.10  0.002830  ( 0.028015  0.006025  0.044824)
 60:   1489.04   0.002556   12.91  0.000536  ( 0.013355 -0.018865  0.001155)
 61:   1503.49   0.004686   23.68  0.000973  (-0.004300 -0.003819 -0.030651)
 62:   1514.03   0.002847   14.39  0.000587  (-0.013550 -0.006964 -0.018834)
 63:   1540.39   0.107722  544.38  0.021823  (-0.126713 -0.040443 -0.064276)
 64:   1587.67   0.026023  131.51  0.005115  ( 0.065556  0.006250  0.027899)
 65:   1773.27   0.061189  309.22  0.010768  ( 0.011027  0.103149  0.002627)
 66:   1779.38   0.092006  464.96  0.016136  (-0.060528  0.030349  0.107476)
 67:   1789.99   0.014681   74.19  0.002559  (-0.044471 -0.021171 -0.011557)
 68:   3059.37   0.002187   11.05  0.000223  ( 0.010989 -0.007169  0.007138)
 69:   3076.44   0.005287   26.72  0.000536  ( 0.011915  0.008667  0.017867)
 70:   3079.68   0.001432    7.24  0.000145  (-0.010713 -0.004631 -0.002988)
 71:   3089.61   0.000425    2.15  0.000043  ( 0.005134 -0.000590 -0.004024)
 72:   3146.73   0.000831    4.20  0.000082  ( 0.004789 -0.007525 -0.001692)
 73:   3152.87   0.002017   10.20  0.000200  (-0.009036  0.010715 -0.001796)
 74:   3171.72   0.000213    1.08  0.000021  (-0.000974 -0.003355  0.002954)
 75:   3182.27   0.001328    6.71  0.000130  (-0.002984  0.003319  0.010502)
 76:   3190.17   0.000964    4.87  0.000094  (-0.008688 -0.002925  0.003198)
 77:   3238.18   0.000421    2.13  0.000041  ( 0.004169  0.004819 -0.000014)
 78:   3601.91   0.021596  109.14  0.001871  ( 0.005126  0.005123  0.042644)
 79:   3656.69   0.015759   79.64  0.001345  (-0.020576 -0.017556  0.024765)
 80:   3817.99   0.024806  125.36  0.002027  (-0.037812 -0.024120 -0.003994)

--------------------------
THERMOCHEMISTRY AT 298.15K
--------------------------

Temperature         ... 298.15 K
Pressure            ... 1.00 atm
Total Mass          ... 201.20 AMU

Throughout the following assumptions are being made:
  (1) The electronic state is orbitally nondegenerate
      but the spin degeneracy is treated
  (2) There are no thermally accessible electronically excited states
  (3) Hindered rotations indicated by low frequency modes are not
      treated as such but are treated as vibrations and this may
      cause some error
  (4) All equations used are the standard statistical mechanics
      equations for an ideal gas
  (5) All vibrations are strictly harmonic

freq.      42.09  E(vib)   ...       0.53
freq.      57.93  E(vib)   ...       0.51
freq.      66.29  E(vib)   ...       0.50
freq.      74.88  E(vib)   ...       0.49
freq.      85.56  E(vib)   ...       0.48
freq.      91.98  E(vib)   ...       0.47
freq.     111.89  E(vib)   ...       0.45
freq.     131.51  E(vib)   ...       0.42
freq.     147.34  E(vib)   ...       0.41
freq.     174.04  E(vib)   ...       0.38
freq.     195.63  E(vib)   ...       0.36
freq.     242.19  E(vib)   ...       0.31
freq.     271.17  E(vib)   ...       0.29
freq.     301.43  E(vib)   ...       0.26
freq.     361.46  E(vib)   ...       0.22
freq.     383.48  E(vib)   ...       0.20
freq.     488.50  E(vib)   ...       0.15
freq.     502.53  E(vib)   ...       0.14
freq.     513.87  E(vib)   ...       0.13
freq.     543.15  E(vib)   ...       0.12
freq.     553.27  E(vib)   ...       0.12
freq.     578.65  E(vib)   ...       0.11
freq.     602.02  E(vib)   ...       0.10
freq.     620.36  E(vib)   ...       0.09
freq.     640.11  E(vib)   ...       0.09
freq.     664.99  E(vib)   ...       0.08
freq.     692.11  E(vib)   ...       0.07
freq.     766.39  E(vib)   ...       0.06
freq.     804.35  E(vib)   ...       0.05
freq.     855.49  E(vib)   ...       0.04
freq.     913.93  E(vib)   ...       0.03
freq.     933.84  E(vib)   ...       0.03
freq.     977.65  E(vib)   ...       0.03
freq.    1017.92  E(vib)   ...       0.02
freq.    1030.97  E(vib)   ...       0.02
freq.    1061.19  E(vib)   ...       0.02
freq.    1085.70  E(vib)   ...       0.02
freq.    1135.35  E(vib)   ...       0.01
freq.    1155.27  E(vib)   ...       0.01
freq.    1170.84  E(vib)   ...       0.01
freq.    1193.73  E(vib)   ...       0.01
freq.    1209.35  E(vib)   ...       0.01
freq.    1221.15  E(vib)   ...       0.01
freq.    1265.12  E(vib)   ...       0.01
freq.    1279.30  E(vib)   ...       0.01
freq.    1294.25  E(vib)   ...       0.01
freq.    1338.90  E(vib)   ...       0.01
freq.    1366.54  E(vib)   ...       0.01
freq.    1387.45  E(vib)   ...       0.00
freq.    1401.93  E(vib)   ...       0.00
freq.    1448.50  E(vib)   ...       0.00
freq.    1460.33  E(vib)   ...       0.00
freq.    1473.78  E(vib)   ...       0.00
freq.    1485.88  E(vib)   ...       0.00
freq.    1489.04  E(vib)   ...       0.00
freq.    1503.49  E(vib)   ...       0.00
freq.    1514.03  E(vib)   ...       0.00
freq.    1540.39  E(vib)   ...       0.00
freq.    1587.67  E(vib)   ...       0.00
freq.    1773.27  E(vib)   ...       0.00
freq.    1779.38  E(vib)   ...       0.00
freq.    1789.99  E(vib)   ...       0.00
freq.    3059.37  E(vib)   ...       0.00
freq.    3076.44  E(vib)   ...       0.00
freq.    3079.68  E(vib)   ...       0.00
freq.    3089.61  E(vib)   ...       0.00
freq.    3146.73  E(vib)   ...       0.00
freq.    3152.87  E(vib)   ...       0.00
freq.    3171.72  E(vib)   ...       0.00
freq.    3182.27  E(vib)   ...       0.00
freq.    3190.17  E(vib)   ...       0.00
freq.    3238.18  E(vib)   ...       0.00
freq.    3601.91  E(vib)   ...       0.00
freq.    3656.69  E(vib)   ...       0.00
freq.    3817.99  E(vib)   ...       0.00

------------
INNER ENERGY
------------

The inner energy is: U= E(el) + E(ZPE) + E(vib) + E(rot) + E(trans)
    E(el)   - is the total energy from the electronic structure calculation
              = E(kin-el) + E(nuc-el) + E(el-el) + E(nuc-nuc)
    E(ZPE)  - the the zero temperature vibrational energy from the frequency calculation
    E(vib)  - the the finite temperature correction to E(ZPE) due to population
              of excited vibrational states
    E(rot)  - is the rotational thermal energy
    E(trans)- is the translational thermal energy

Summary of contributions to the inner energy U:
Electronic energy                ...   -723.08398628 Eh
Zero point energy                ...      0.21942041 Eh     137.69 kcal/mol
Thermal vibrational correction   ...      0.01265521 Eh       7.94 kcal/mol
Thermal rotational correction    ...      0.00141627 Eh       0.89 kcal/mol
Thermal translational correction ...      0.00141627 Eh       0.89 kcal/mol
-----------------------------------------------------------------------
Total thermal energy                   -722.84907811 Eh

Summary of corrections to the electronic energy:
(perhaps to be used in another calculation)
Total thermal correction                  0.01548775 Eh       9.72 kcal/mol
Non-thermal (ZPE) correction              0.21942041 Eh     137.69 kcal/mol
-----------------------------------------------------------------------
Total correction                          0.23490816 Eh     147.41 kcal/mol

--------
ENTHALPY
--------

The enthalpy is H = U + kB*T
                kB is Boltzmann's constant
Total free energy                 ...   -722.84907811 Eh
Thermal Enthalpy correction       ...      0.00094421 Eh       0.59 kcal/mol
-----------------------------------------------------------------------
Total Enthalpy                    ...   -722.84813390 Eh

Note: Only C1 symmetry has been detected, increase convergence thresholds
      if your molecule has a higher symmetry. Symmetry factor of 1.0 is
      used for the rotational entropy correction.

Note: Rotational entropy computed according to Herzberg
Infrared and Raman Spectra, Chapter V,1, Van Nostrand Reinhold, 1945
Point Group:  C1, Symmetry Number:   1
Rotational constants in cm-1:     0.030529     0.014604     0.011488

Vibrational entropy computed according to the QRRHO of S. Grimme
Chem.Eur.J. 2012 18 9955

-------
ENTROPY
-------

The entropy contributions are T*S = T*(S(el)+S(vib)+S(rot)+S(trans))
     S(el)   - electronic entropy
     S(vib)  - vibrational entropy
     S(rot)  - rotational entropy
     S(trans)- translational entropy
The entropies will be listed as multiplied by the temperature to get

                             ****ORCA TERMINATED NORMALLY****
TOTAL RUN TIME: 0 days 0 hours 29 minutes 12 seconds 2 msec
