                         Program Version 5.0.4 -  RELEASE  -
|  1> ! B3LYP EPR-II OPT
|  2> %pal nprocs 16 end
|  3> *XYZFile 0 2 model.xyz
|  4>
|  5>                          ****END OF INPUT****
 Total Charge           Charge          ....    0
 Multiplicity           Mult            ....    2
 Number of Electrons    NEL             ....  107
FINAL SINGLE POINT ENERGY      -722.848238072133
FINAL SINGLE POINT ENERGY      -722.850181600525
FINAL SINGLE POINT ENERGY      -722.850288271755
FINAL SINGLE POINT ENERGY      -722.850314929769
FINAL SINGLE POINT ENERGY      -722.850320629603
FINAL SINGLE POINT ENERGY      -722.850331938216
FINAL SINGLE POINT ENERGY      -722.850341719290
FINAL SINGLE POINT ENERGY      -722.850347687548
FINAL SINGLE POINT ENERGY      -722.850355663847
FINAL SINGLE POINT ENERGY      -722.850358809256
FINAL SINGLE POINT ENERGY      -722.850359098711
FINAL SINGLE POINT ENERGY      -722.850356189412
FINAL SINGLE POINT ENERGY      -722.850352033344
FINAL SINGLE POINT ENERGY      -722.850348313092
                    ***********************HURRAY********************

CARTESIAN COORDINATES (ANGSTROEM)
---------------------------------
  N     -4.534350   -4.734546   -0.781879
  C     -3.084771   -4.743080   -0.799580
  C     -2.617344   -4.583067    0.665565
  O     -3.417022   -4.360173    1.576271
  C     -2.492930   -3.641098   -1.732537
  C     -2.794590   -2.248238   -1.289811
  H     -3.786369   -1.993587   -0.929816
  C     -1.857750   -1.138476   -1.340756
  O     -0.602155   -1.483196   -1.776714
  O     -2.131410    0.015821   -1.026861
  H     -4.949759   -4.539250    0.121419
  H     -2.737663   -5.708174   -1.190482
  C     -5.274172   -5.216982   -1.827540
  N     -1.278978   -4.698979    0.874364
  H     -0.091994   -0.658540   -1.772230
  H     -0.670527   -4.838923    0.083422
  O     -4.752352   -5.594160   -2.877892
  C     -6.784092   -5.239695   -1.620554
  H     -7.246900   -4.585643   -2.364934
  H     -7.142934   -6.255582   -1.805132
  H     -7.091341   -4.920971   -0.621182
  C     -0.687172   -4.503354    2.196732
  H     -1.134998   -5.190411    2.919000
  H      0.384684   -4.697969    2.131605
  H     -0.847947   -3.480499    2.550745
  H     -1.414833   -3.778198   -1.852345
  H     -2.940720   -3.824808   -2.721032

 Multiplicity           Mult            ....    2
 Number of Electrons    NEL             ....  107
 Basis Dimension        Dim             ....  329

ORBITAL ENERGIES
----------------
                 SPIN UP ORBITALS
  NO   OCC          E(Eh)            E(eV)
   0   1.0000     -19.191045      -522.2149
   1   1.0000     -19.140964      -520.8521
   2   1.0000     -19.131577      -520.5967
   3   1.0000     -19.111003      -520.0368
   4   1.0000     -14.379457      -391.2849
   5   1.0000     -14.360709      -390.7748
   6   1.0000     -10.327872      -281.0357
   7   1.0000     -10.312195      -280.6091
   8   1.0000     -10.298309      -280.2312
   9   1.0000     -10.256140      -279.0838
  10   1.0000     -10.236621      -278.5526
  11   1.0000     -10.231469      -278.4124
  12   1.0000     -10.215148      -277.9683
  13   1.0000     -10.192870      -277.3621
  14   1.0000      -1.104040       -30.0425
  15   1.0000      -1.055261       -28.7151
  16   1.0000      -1.033485       -28.1226
  17   1.0000      -1.015558       -27.6347
  18   1.0000      -0.939077       -25.5536
  19   1.0000      -0.928818       -25.2744
  20   1.0000      -0.820153       -22.3175
  21   1.0000      -0.764261       -20.7966
  22   1.0000      -0.734422       -19.9846
  23   1.0000      -0.707794       -19.2600
  24   1.0000      -0.657999       -17.9051
  25   1.0000      -0.607482       -16.5304
  26   1.0000      -0.606454       -16.5025
  27   1.0000      -0.579900       -15.7799
  28   1.0000      -0.547765       -14.9054
  29   1.0000      -0.510036       -13.8788
  30   1.0000      -0.491804       -13.3827
  31   1.0000      -0.483394       -13.1538
  32   1.0000      -0.476598       -12.9689
  33   1.0000      -0.472477       -12.8567
  34   1.0000      -0.462767       -12.5925
  35   1.0000      -0.455787       -12.4026
  36   1.0000      -0.454603       -12.3704
  37   1.0000      -0.439068       -11.9477
  38   1.0000      -0.431526       -11.7424
  39   1.0000      -0.413769       -11.2592
  40   1.0000      -0.411199       -11.1893
  41   1.0000      -0.409775       -11.1506
  42   1.0000      -0.402335       -10.9481
  43   1.0000      -0.396606       -10.7922
  44   1.0000      -0.382134       -10.3984
  45   1.0000      -0.378712       -10.3053
  46   1.0000      -0.354645        -9.6504
  47   1.0000      -0.334240        -9.0951
  48   1.0000      -0.287106        -7.8126
  49   1.0000      -0.280505        -7.6329
  50   1.0000      -0.279897        -7.6164
  51   1.0000      -0.266539        -7.2529
  52   1.0000      -0.256920        -6.9911
  53   1.0000      -0.238286        -6.4841
  54   0.0000      -0.004039        -0.1099
  55   0.0000       0.005476         0.1490
  56   0.0000       0.018135         0.4935
  57   0.0000       0.019532         0.5315
  58   0.0000       0.028841         0.7848

                 SPIN DOWN ORBITALS
  NO   OCC          E(Eh)            E(eV)
   0   1.0000     -19.190685      -522.2051
   1   1.0000     -19.135667      -520.7080
   2   1.0000     -19.131529      -520.5954
   3   1.0000     -19.110852      -520.0327
   4   1.0000     -14.379454      -391.2848
   5   1.0000     -14.360670      -390.7737
   6   1.0000     -10.329039      -281.0674
   7   1.0000     -10.312189      -280.6089
   8   1.0000     -10.298325      -280.2317
   9   1.0000     -10.255506      -279.0665
  10   1.0000     -10.231469      -278.4124
  11   1.0000     -10.224814      -278.2313
  12   1.0000     -10.215751      -277.9847
  13   1.0000     -10.192866      -277.3620
  14   1.0000      -1.101131       -29.9633
  15   1.0000      -1.055126       -28.7114
  16   1.0000      -1.033266       -28.1166
  17   1.0000      -1.007979       -27.4285
  18   1.0000      -0.939037       -25.5525
  19   1.0000      -0.928364       -25.2621
  20   1.0000      -0.809749       -22.0344
  21   1.0000      -0.755183       -20.5496
  22   1.0000      -0.733973       -19.9724
  23   1.0000      -0.702764       -19.1232
  24   1.0000      -0.655586       -17.8394
  25   1.0000      -0.606827       -16.5126
  26   1.0000      -0.600774       -16.3479
  27   1.0000      -0.577133       -15.7046
  28   1.0000      -0.547231       -14.8909
  29   1.0000      -0.507388       -13.8067
  30   1.0000      -0.487945       -13.2777
  31   1.0000      -0.483152       -13.1472
  32   1.0000      -0.472410       -12.8549
  33   1.0000      -0.469541       -12.7769
  34   1.0000      -0.461222       -12.5505
  35   1.0000      -0.453476       -12.3397
  36   1.0000      -0.445056       -12.1106
  37   1.0000      -0.433909       -11.8073
  38   1.0000      -0.429616       -11.6904
  39   1.0000      -0.413137       -11.2420
  40   1.0000      -0.408466       -11.1149
  41   1.0000      -0.407641       -11.0925
  42   1.0000      -0.399799       -10.8791
  43   1.0000      -0.394329       -10.7302
  44   1.0000      -0.380587       -10.3563
  45   1.0000      -0.377024       -10.2593
  46   1.0000      -0.353642        -9.6231
  47   1.0000      -0.316028        -8.5996
  48   1.0000      -0.282329        -7.6826
  49   1.0000      -0.279238        -7.5985
  50   1.0000      -0.277694        -7.5564
  51   1.0000      -0.262319        -7.1381
  52   1.0000      -0.256248        -6.9729
  53   0.0000      -0.119372        -3.2483
  54   0.0000      -0.003455        -0.0940
  55   0.0000       0.005647         0.1537
  56   0.0000       0.018324         0.4986
  57   0.0000       0.019756         0.5376

MULLIKEN ATOMIC CHARGES AND SPIN POPULATIONS
--------------------------------------------
   0 N :   -0.118133    0.001228
   1 C :   -0.133534    0.023135
   2 C :    0.110582    0.000298
   3 O :   -0.328708    0.002562
   4 C :   -0.276732   -0.047701
   5 C :   -0.033671    0.852672
   6 H :    0.166246   -0.039592
   7 C :    0.068812   -0.053327
   8 O :   -0.291201    0.013563
   9 O :   -0.270397    0.193300
  10 H :    0.256468   -0.000042
  11 H :    0.171170    0.002153
  12 C :    0.177769   -0.001168
  13 N :   -0.104463   -0.000651
  14 H :    0.289306   -0.001714
  15 H :    0.235816    0.000149
  16 O :   -0.322463    0.004474
  17 C :   -0.551272    0.000170
  18 H :    0.186808   -0.000013
  19 H :    0.187876    0.000009
  20 H :    0.150747    0.000029
  21 C :   -0.435276   -0.000078
  22 H :    0.185425    0.000051
  23 H :    0.144453    0.000005
  24 H :    0.182868    0.000015
  25 H :    0.151550    0.004998
  26 H :    0.199956    0.045475
Sum of atomic charges         :   -0.0000000

LOEWDIN ATOMIC CHARGES AND SPIN POPULATIONS
-------------------------------------------
   0 N :    0.061619    0.002012
   1 C :   -0.040952    0.023831
   2 C :   -0.090764    0.003540
   3 O :   -0.181326    0.001707
   4 C :   -0.050526    0.011056
   5 C :    0.045114    0.695353
   6 H :    0.063998    0.003881
   7 C :   -0.119929    0.010748
   8 O :   -0.010564    0.013359
   9 O :   -0.143349    0.185574
  10 H :    0.092212    0.000217
  11 H :    0.070202    0.001584
  12 C :   -0.101221   -0.000102
  13 N :    0.044496    0.000185
  14 H :    0.099486   -0.000215
  15 H :    0.080725    0.000253
  16 O :   -0.194476    0.004493
  17 C :   -0.039632    0.000130
  18 H :    0.055607    0.000002
  19 H :    0.055657   -0.000017
  20 H :    0.035003    0.000025
  21 C :    0.015397    0.000124
  22 H :    0.042157   -0.000006
  23 H :    0.033639    0.000006
  24 H :    0.040626   -0.000013
  25 H :    0.055075    0.004045
  26 H :    0.081726    0.038230

  Mayer bond orders larger than 0.100000
B(  0-N ,  1-C ) :   1.0326 B(  0-N , 10-H ) :   0.8871 B(  0-N , 12-C ) :   1.2014
B(  1-C ,  2-C ) :   0.9003 B(  1-C ,  4-C ) :   0.9360 B(  1-C , 11-H ) :   0.9635
B(  1-C , 16-O ) :   0.1381 B(  2-C ,  3-O ) :   1.8403 B(  2-C , 13-N ) :   1.2161
B(  4-C ,  5-C ) :   1.0112 B(  4-C , 25-H ) :   0.9556 B(  4-C , 26-H ) :   0.9276
B(  5-C ,  6-H ) :   0.9832 B(  5-C ,  7-C ) :   1.1172 B(  5-C ,  9-O ) :   0.1154
B(  7-C ,  8-O ) :   1.0838 B(  7-C ,  9-O ) :   1.8589 B(  8-O , 14-H ) :   0.8964
B( 12-C , 16-O ) :   1.8540 B( 12-C , 17-C ) :   0.8978 B( 13-N , 15-H ) :   0.9313
B( 13-N , 21-C ) :   0.9611 B( 17-C , 18-H ) :   0.9568 B( 17-C , 19-H ) :   0.9580
B( 17-C , 20-H ) :   0.9745 B( 21-C , 22-H ) :   0.9518 B( 21-C , 23-H ) :   0.9673
B( 21-C , 24-H ) :   0.9503

FINAL SINGLE POINT ENERGY      -722.850349205139

DIPOLE MOMENT
-------------
                                X             Y             Z
Electronic contribution:      1.74891       5.20938      -2.76634
Nuclear contribution   :     -0.63441      -5.85175       3.29541
                        -----------------------------------------
Total Dipole Moment    :      1.11450      -0.64237       0.52907
                        -----------------------------------------
Magnitude (a.u.)       :      1.39093
Magnitude (Debye)      :      3.53545

Rotational constants in cm-1:     0.024094     0.014963     0.010912
Rotational constants in MHz :   722.309000   448.576761   327.141162

                             ****ORCA TERMINATED NORMALLY****
TOTAL RUN TIME: 0 days 0 hours 8 minutes 3 seconds 760 msec
