                         Program Version 5.0.4 -  RELEASE  -
|  1> ! B3LYP EPR-II AUTOAUX
|  2> %pal nprocs 16 end
|  3> *XYZFile 0 2 opt.xyz
|  4> %EPRNMR
|  5>         GTENSOR   TRUE
|  6>         NUCLEI    = 1,8,9,10,11,14,25,26,27 {SHIFT, AISO, ADIP, AORB}
|  7>         ORI       GIAO
|  8> END
|  9>
| 10>                          ****END OF INPUT****

CARTESIAN COORDINATES (ANGSTROEM)
---------------------------------
  N     -4.445475   -4.718182   -0.765658
  C     -2.995774   -4.715649   -0.800385
  C     -2.511813   -4.684955    0.666264
  O     -3.286285   -4.453622    1.596418
  C     -2.423852   -3.524759   -1.626733
  C     -2.778219   -2.182832   -1.076858
  C     -1.948386   -0.995559   -1.190269
  O     -0.734101   -1.216122   -1.790192
  O     -2.275973    0.119436   -0.795982
  H     -4.854390   -4.568801    0.148991
  H     -2.648475   -5.637205   -1.283869
  C     -5.197621   -5.102735   -1.842321
  N     -1.184634   -4.913233    0.853175
  H     -0.293226   -0.352705   -1.809923
  H     -0.599955   -5.087747    0.051187
  O     -4.686964   -5.393799   -2.924918
  C     -6.704952   -5.144947   -1.619726
  H     -7.044265   -6.177245   -1.745069
  H     -7.008779   -4.783534   -0.633899
  H     -7.187756   -4.542057   -2.392901
  C     -0.572642   -4.856270    2.179418
  H     -1.079387   -5.543310    2.861896
  H      0.476767   -5.143148    2.092765
  H     -0.637267   -3.847301    2.597811
  H     -1.339290   -3.616708   -1.738924
  H     -2.847115   -3.635119   -2.637473
  H     -3.739082   -2.024958   -0.597969

 Total Charge           Charge          ....    0
 Multiplicity           Mult            ....    2
 Number of Electrons    NEL             ....  107
 Basis Dimension        Dim             ....  329

ORBITAL ENERGIES
----------------
                 SPIN UP ORBITALS
  NO   OCC          E(Eh)            E(eV)
   0   1.0000     -19.189234      -522.1656
   1   1.0000     -19.139324      -520.8075
   2   1.0000     -19.131922      -520.6061
   3   1.0000     -19.110865      -520.0331
   4   1.0000     -14.380505      -391.3134
   5   1.0000     -14.361159      -390.7870
   6   1.0000     -10.326032      -280.9856
   7   1.0000     -10.312400      -280.6147
   8   1.0000     -10.298411      -280.2340
   9   1.0000     -10.255779      -279.0739
  10   1.0000     -10.234882      -278.5053
  11   1.0000     -10.232266      -278.4341
  12   1.0000     -10.214857      -277.9604
  13   1.0000     -10.192973      -277.3649
  14   1.0000      -1.102236       -29.9934
  15   1.0000      -1.055505       -28.7217
  16   1.0000      -1.033417       -28.1207
  17   1.0000      -1.013761       -27.5858
  18   1.0000      -0.939736       -25.5715
  19   1.0000      -0.929019       -25.2799
  20   1.0000      -0.819362       -22.2960
  21   1.0000      -0.764257       -20.7965
  22   1.0000      -0.734790       -19.9946
  23   1.0000      -0.707872       -19.2622
  24   1.0000      -0.657128       -17.8814
  25   1.0000      -0.607850       -16.5404
  26   1.0000      -0.605805       -16.4848
  27   1.0000      -0.580429       -15.7943
  28   1.0000      -0.547912       -14.9095
  29   1.0000      -0.509472       -13.8634
  30   1.0000      -0.490374       -13.3438
  31   1.0000      -0.483742       -13.1633
  32   1.0000      -0.475492       -12.9388
  33   1.0000      -0.472284       -12.8515
  34   1.0000      -0.462826       -12.5941
  35   1.0000      -0.456221       -12.4144
  36   1.0000      -0.454391       -12.3646
  37   1.0000      -0.437065       -11.8931
  38   1.0000      -0.431321       -11.7368
  39   1.0000      -0.414248       -11.2723
  40   1.0000      -0.411843       -11.2068
  41   1.0000      -0.408833       -11.1249
  42   1.0000      -0.401304       -10.9200
  43   1.0000      -0.396725       -10.7954
  44   1.0000      -0.381807       -10.3895
  45   1.0000      -0.379274       -10.3206
  46   1.0000      -0.354585        -9.6487
  47   1.0000      -0.332307        -9.0425
  48   1.0000      -0.285678        -7.7737
  49   1.0000      -0.280814        -7.6413
  50   1.0000      -0.279434        -7.6038
  51   1.0000      -0.266513        -7.2522
  52   1.0000      -0.256928        -6.9914
  53   1.0000      -0.236560        -6.4371
  54   0.0000      -0.004428        -0.1205
  55   0.0000       0.004962         0.1350
  56   0.0000       0.018369         0.4999
  57   0.0000       0.019744         0.5373
  58   0.0000       0.027680         0.7532

                 SPIN DOWN ORBITALS
  NO   OCC          E(Eh)            E(eV)
   0   1.0000     -19.188885      -522.1561
   1   1.0000     -19.134083      -520.6649
   2   1.0000     -19.131853      -520.6042
   3   1.0000     -19.110716      -520.0290
   4   1.0000     -14.380502      -391.3134
   5   1.0000     -14.361103      -390.7855
   6   1.0000     -10.327167      -281.0165
   7   1.0000     -10.312390      -280.6144
   8   1.0000     -10.298428      -280.2345
   9   1.0000     -10.255345      -279.0621
  10   1.0000     -10.232265      -278.4341
  11   1.0000     -10.223047      -278.1833
  12   1.0000     -10.215448      -277.9765
  13   1.0000     -10.192968      -277.3648
  14   1.0000      -1.099355       -29.9150
  15   1.0000      -1.055355       -28.7177
  16   1.0000      -1.033202       -28.1149
  17   1.0000      -1.006254       -27.3816
  18   1.0000      -0.939693       -25.5704
  19   1.0000      -0.928609       -25.2687
  20   1.0000      -0.809326       -22.0229
  21   1.0000      -0.755100       -20.5473
  22   1.0000      -0.734432       -19.9849
  23   1.0000      -0.702763       -19.1232
  24   1.0000      -0.654590       -17.8123
  25   1.0000      -0.607550       -16.5323
  26   1.0000      -0.600044       -16.3280
  27   1.0000      -0.577344       -15.7103
  28   1.0000      -0.547368       -14.8946
  29   1.0000      -0.506857       -13.7923
  30   1.0000      -0.486633       -13.2419
  31   1.0000      -0.483331       -13.1521
  32   1.0000      -0.471969       -12.8429
  33   1.0000      -0.469580       -12.7779
  34   1.0000      -0.461319       -12.5531
  35   1.0000      -0.453440       -12.3387
  36   1.0000      -0.444684       -12.1005
  37   1.0000      -0.432031       -11.7562
  38   1.0000      -0.429516       -11.6877
  39   1.0000      -0.413694       -11.2572
  40   1.0000      -0.409103       -11.1323
  41   1.0000      -0.406520       -11.0620
  42   1.0000      -0.398803       -10.8520
  43   1.0000      -0.394173       -10.7260
  44   1.0000      -0.379854       -10.3363
  45   1.0000      -0.377506       -10.2725
  46   1.0000      -0.353774        -9.6267
  47   1.0000      -0.314228        -8.5506
  48   1.0000      -0.281790        -7.6679
  49   1.0000      -0.279035        -7.5929
  50   1.0000      -0.277434        -7.5494
  51   1.0000      -0.262138        -7.1331
  52   1.0000      -0.256242        -6.9727
  53   0.0000      -0.117082        -3.1860
  54   0.0000      -0.003874        -0.1054
  55   0.0000       0.005135         0.1397
  56   0.0000       0.018599         0.5061
  57   0.0000       0.019974         0.5435

MULLIKEN ATOMIC CHARGES AND SPIN POPULATIONS
--------------------------------------------
   0 N :   -0.118873    0.001675
   1 C :   -0.137200    0.016015
   2 C :    0.113783    0.000609
   3 O :   -0.326635    0.002862
   4 C :   -0.274343   -0.048047
   5 C :   -0.027214    0.854145
   6 C :    0.058028   -0.052889
   7 O :   -0.288512    0.013228
   8 O :   -0.272320    0.192134
   9 H :    0.257137   -0.000075
  10 H :    0.165675    0.001264
  11 C :    0.177083   -0.001237
  12 N :   -0.107115   -0.000901
  13 H :    0.289249   -0.001725
  14 H :    0.236433    0.000106
  15 O :   -0.322661    0.004446
  16 C :   -0.551851    0.000222
  17 H :    0.187860    0.000002
  18 H :    0.151169    0.000021
  19 H :    0.188162   -0.000014
  20 C :   -0.437412    0.000180
  21 H :    0.186219    0.000087
  22 H :    0.144884    0.000005
  23 H :    0.183865   -0.000001
  24 H :    0.153749    0.009366
  25 H :    0.203464    0.048490
  26 H :    0.167374   -0.039966
Sum of atomic charges         :   -0.0000000

LOEWDIN ATOMIC CHARGES AND SPIN POPULATIONS
-------------------------------------------
   0 N :    0.062102    0.002276
   1 C :   -0.042402    0.016516
   2 C :   -0.091269    0.003085
   3 O :   -0.181664    0.002331
   4 C :   -0.050673    0.011013
   5 C :    0.044394    0.697548
   6 C :   -0.120040    0.011379
   7 O :   -0.007991    0.012953
   8 O :   -0.144442    0.184440
   9 H :    0.092193    0.000127
  10 H :    0.068589    0.000912
  11 C :   -0.101075   -0.000196
  12 N :    0.044051    0.000067
  13 H :    0.099236   -0.000249
  14 H :    0.080557    0.000215
  15 O :   -0.194362    0.004368
  16 C :   -0.039808    0.000136
  17 H :    0.055911   -0.000016
  18 H :    0.035134    0.000019
  19 H :    0.055521   -0.000004
  20 C :    0.015345    0.000139
  21 H :    0.042395    0.000005
  22 H :    0.033653    0.000006
  23 H :    0.040654   -0.000008
  24 H :    0.057017    0.008039
  25 H :    0.082792    0.040995
  26 H :    0.064180    0.003903

  Mayer bond orders larger than 0.100000
B(  0-N ,  1-C ) :   1.0288 B(  0-N ,  9-H ) :   0.8875 B(  0-N , 11-C ) :   1.2024
B(  1-C ,  2-C ) :   0.9011 B(  1-C ,  4-C ) :   0.9403 B(  1-C , 10-H ) :   0.9664
B(  1-C , 15-O ) :   0.1368 B(  2-C ,  3-O ) :   1.8423 B(  2-C , 12-N ) :   1.2172
B(  4-C ,  5-C ) :   1.0111 B(  4-C , 24-H ) :   0.9554 B(  4-C , 25-H ) :   0.9256
B(  5-C ,  6-C ) :   1.1147 B(  5-C ,  8-O ) :   0.1169 B(  5-C , 26-H ) :   0.9839
B(  6-C ,  7-O ) :   1.0860 B(  6-C ,  8-O ) :   1.8555 B(  7-O , 13-H ) :   0.8966
B( 11-C , 15-O ) :   1.8561 B( 11-C , 16-C ) :   0.8968 B( 12-N , 14-H ) :   0.9328
B( 12-N , 20-C ) :   0.9612 B( 16-C , 17-H ) :   0.9552 B( 16-C , 18-H ) :   0.9751
B( 16-C , 19-H ) :   0.9590 B( 20-C , 21-H ) :   0.9513 B( 20-C , 22-H ) :   0.9671
B( 20-C , 23-H ) :   0.9498

FINAL SINGLE POINT ENERGY      -722.849794024894

DIPOLE MOMENT
-------------
                                X             Y             Z
Electronic contribution:      1.44693       5.82162      -2.63161
Nuclear contribution   :     -0.28722      -6.64767       3.11473
                        -----------------------------------------
Total Dipole Moment    :      1.15971      -0.82605       0.48312
                        -----------------------------------------
Magnitude (a.u.)       :      1.50356
Magnitude (Debye)      :      3.82175

Rotational constants in cm-1:     0.022294     0.015454     0.010824
Rotational constants in MHz :   668.354167   463.298454   324.492514

CHEMICAL SHIELDING SUMMARY (ppm)  --  Orbital contribution
----------------------------------------------------------

  Nucleus  Element    Isotropic     Anisotropy
  -------  -------  ------------   ------------
      0       N          129.428        116.440
      7       O          130.480        177.571
      8       O         -131.791       -433.263
      9       H           25.201          7.278
     10       H           27.639          4.755
     13       H           26.348         11.222
     24       H           29.193          5.299
     25       H           28.137          6.322
     26       H           26.277          9.001

                             ****ORCA TERMINATED NORMALLY****
TOTAL RUN TIME: 0 days 0 hours 5 minutes 40 seconds 701 msec
