                         Program Version 5.0.4 -  RELEASE  -
|  1> ! M062X def2-TZVP OPT FREQ
|  2> %pal nprocs 16 end
|  3> *XYZFile 0 2 opt.xyz
|  4>
|  5>                          ****END OF INPUT****
 Total Charge           Charge          ....    0
 Multiplicity           Mult            ....    2
 Number of Electrons    NEL             ....  107
FINAL SINGLE POINT ENERGY      -723.078963418610
FINAL SINGLE POINT ENERGY      -723.082183766234
FINAL SINGLE POINT ENERGY      -723.082267249669
FINAL SINGLE POINT ENERGY      -723.082315341869
FINAL SINGLE POINT ENERGY      -723.082327886722
FINAL SINGLE POINT ENERGY      -723.082352748222
FINAL SINGLE POINT ENERGY      -723.082382311627
FINAL SINGLE POINT ENERGY      -723.082242486742
FINAL SINGLE POINT ENERGY      -723.082261473351
FINAL SINGLE POINT ENERGY      -723.082562719187
FINAL SINGLE POINT ENERGY      -723.083919710073
FINAL SINGLE POINT ENERGY      -723.083948892133
FINAL SINGLE POINT ENERGY      -723.083953243954
FINAL SINGLE POINT ENERGY      -723.083960753967
FINAL SINGLE POINT ENERGY      -723.083969311169
FINAL SINGLE POINT ENERGY      -723.083973369317
FINAL SINGLE POINT ENERGY      -723.083981501139
FINAL SINGLE POINT ENERGY      -723.083983766977
FINAL SINGLE POINT ENERGY      -723.083986507576
                    ***********************HURRAY********************

CARTESIAN COORDINATES (ANGSTROEM)
---------------------------------
  N     -4.523578   -4.732505   -0.794283
  C     -3.086419   -4.741694   -0.905852
  C     -2.527451   -4.708168    0.521511
  O     -3.234999   -4.958249    1.479959
  C     -2.562408   -3.595103   -1.798919
  C     -2.722755   -2.262210   -1.175440
  C     -1.631571   -1.381178   -0.832529
  O     -0.400499   -1.904014   -1.100855
  O     -1.754348   -0.280568   -0.349707
  H     -4.879741   -4.757738    0.151187
  H     -2.768194   -5.680324   -1.372819
  C     -5.305744   -5.116365   -1.837576
  N     -1.219897   -4.413565    0.645095
  H      0.241674   -1.225030   -0.852252
  H     -0.713576   -4.051578   -0.145963
  O     -4.844962   -5.333631   -2.942145
  C     -6.782423   -5.234546   -1.546206
  H     -7.104716   -6.238241   -1.818802
  H     -7.030316   -5.040165   -0.504643
  H     -7.317219   -4.530971   -2.183041
  C     -0.618419   -4.322519    1.961742
  H     -0.764395   -5.257137    2.500514
  H      0.445854   -4.134255    1.847560
  H     -1.072298   -3.519035    2.543646
  H     -1.521443   -3.775982   -2.064987
  H     -3.141655   -3.655386   -2.724474
  H     -3.707414   -1.892909   -0.925869

 Multiplicity           Mult            ....    2
 Number of Electrons    NEL             ....  107
 Basis Dimension        Dim             ....  512

ORBITAL ENERGIES
----------------
                 SPIN UP ORBITALS
  NO   OCC          E(Eh)            E(eV)
   0   1.0000     -19.685754      -535.6766
   1   1.0000     -19.629380      -534.1426
   2   1.0000     -19.612119      -533.6729
   3   1.0000     -19.596193      -533.2395
   4   1.0000     -14.788213      -402.4077
   5   1.0000     -14.776634      -402.0927
   6   1.0000     -10.684273      -290.7338
   7   1.0000     -10.658477      -290.0319
   8   1.0000     -10.648065      -289.7486
   9   1.0000     -10.606421      -288.6154
  10   1.0000     -10.593194      -288.2555
  11   1.0000     -10.579294      -287.8772
  12   1.0000     -10.565446      -287.5004
  13   1.0000     -10.544030      -286.9176
  14   1.0000      -1.248732       -33.9797
  15   1.0000      -1.187352       -32.3095
  16   1.0000      -1.169267       -31.8174
  17   1.0000      -1.154185       -31.4070
  18   1.0000      -1.051411       -28.6104
  19   1.0000      -1.046475       -28.4760
  20   1.0000      -0.932471       -25.3738
  21   1.0000      -0.868102       -23.6223
  22   1.0000      -0.832481       -22.6530
  23   1.0000      -0.803748       -21.8711
  24   1.0000      -0.753763       -20.5109
  25   1.0000      -0.702235       -19.1088
  26   1.0000      -0.690391       -18.7865
  27   1.0000      -0.664616       -18.0851
  28   1.0000      -0.632034       -17.1985
  29   1.0000      -0.600101       -16.3296
  30   1.0000      -0.593389       -16.1469
  31   1.0000      -0.571688       -15.5564
  32   1.0000      -0.562067       -15.2946
  33   1.0000      -0.557648       -15.1744
  34   1.0000      -0.550311       -14.9747
  35   1.0000      -0.538838       -14.6625
  36   1.0000      -0.535610       -14.5747
  37   1.0000      -0.522639       -14.2217
  38   1.0000      -0.509827       -13.8731
  39   1.0000      -0.494133       -13.4460
  40   1.0000      -0.486801       -13.2465
  41   1.0000      -0.481313       -13.0972
  42   1.0000      -0.475489       -12.9387
  43   1.0000      -0.468421       -12.7464
  44   1.0000      -0.458218       -12.4687
  45   1.0000      -0.447805       -12.1854
  46   1.0000      -0.429864       -11.6972
  47   1.0000      -0.426204       -11.5976
  48   1.0000      -0.376332       -10.2405
  49   1.0000      -0.357410        -9.7256
  50   1.0000      -0.348719        -9.4891
  51   1.0000      -0.338647        -9.2151
  52   1.0000      -0.330344        -8.9891
  53   1.0000      -0.302625        -8.2348
  54   0.0000       0.035495         0.9659
  55   0.0000       0.042565         1.1583
  56   0.0000       0.058243         1.5849
  57   0.0000       0.065957         1.7948
  58   0.0000       0.070488         1.9181

                 SPIN DOWN ORBITALS
  NO   OCC          E(Eh)            E(eV)
   0   1.0000     -19.685580      -535.6719
   1   1.0000     -19.625724      -534.0431
   2   1.0000     -19.612117      -533.6728
   3   1.0000     -19.596127      -533.2377
   4   1.0000     -14.788140      -402.4057
   5   1.0000     -14.776669      -402.0936
   6   1.0000     -10.685133      -290.7572
   7   1.0000     -10.658502      -290.0326
   8   1.0000     -10.648068      -289.7487
   9   1.0000     -10.605675      -288.5951
  10   1.0000     -10.587794      -288.1085
  11   1.0000     -10.579296      -287.8773
  12   1.0000     -10.565990      -287.5152
  13   1.0000     -10.544030      -286.9176
  14   1.0000      -1.245684       -33.8968
  15   1.0000      -1.187265       -32.3071
  16   1.0000      -1.169144       -31.8140
  17   1.0000      -1.146873       -31.2080
  18   1.0000      -1.051188       -28.6043
  19   1.0000      -1.045930       -28.4612
  20   1.0000      -0.919525       -25.0215
  21   1.0000      -0.858130       -23.3509
  22   1.0000      -0.831028       -22.6134
  23   1.0000      -0.799189       -21.7470
  24   1.0000      -0.751659       -20.4537
  25   1.0000      -0.693513       -18.8715
  26   1.0000      -0.690238       -18.7823
  27   1.0000      -0.662110       -18.0169
  28   1.0000      -0.631188       -17.1755
  29   1.0000      -0.596318       -16.2266
  30   1.0000      -0.588645       -16.0179
  31   1.0000      -0.565763       -15.3952
  32   1.0000      -0.559242       -15.2177
  33   1.0000      -0.553259       -15.0549
  34   1.0000      -0.541578       -14.7371
  35   1.0000      -0.537152       -14.6167
  36   1.0000      -0.533005       -14.5038
  37   1.0000      -0.515578       -14.0296
  38   1.0000      -0.506608       -13.7855
  39   1.0000      -0.491778       -13.3820
  40   1.0000      -0.484108       -13.1733
  41   1.0000      -0.477153       -12.9840
  42   1.0000      -0.474746       -12.9185
  43   1.0000      -0.467498       -12.7213
  44   1.0000      -0.457211       -12.4413
  45   1.0000      -0.445948       -12.1349
  46   1.0000      -0.427524       -11.6335
  47   1.0000      -0.403830       -10.9888
  48   1.0000      -0.369129       -10.0445
  49   1.0000      -0.354248        -9.6396
  50   1.0000      -0.345339        -9.3972
  51   1.0000      -0.338020        -9.1980
  52   1.0000      -0.328937        -8.9508
  53   0.0000      -0.083657        -2.2764
  54   0.0000       0.036507         0.9934
  55   0.0000       0.043785         1.1915
  56   0.0000       0.058213         1.5840
  57   0.0000       0.066188         1.8011

MULLIKEN ATOMIC CHARGES AND SPIN POPULATIONS
--------------------------------------------
   0 N :   -0.399838   -0.011481
   1 C :   -0.015687    0.074183
   2 C :    0.329891   -0.011312
   3 O :   -0.404843    0.001467
   4 C :   -0.403132   -0.076111
   5 C :   -0.192413    0.891600
   6 C :    0.365490   -0.072265
   7 O :   -0.456715    0.009565
   8 O :   -0.324178    0.189726
   9 H :    0.270250   -0.000260
  10 H :    0.183864    0.003495
  11 C :    0.398248   -0.000634
  12 N :   -0.338767    0.001522
  13 H :    0.343056   -0.002421
  14 H :    0.258748   -0.000232
  15 O :   -0.409190    0.001072
  16 C :   -0.456792   -0.000008
  17 H :    0.162237    0.000017
  18 H :    0.131987    0.000048
  19 H :    0.160234   -0.000027
  20 C :   -0.301506   -0.001332
  21 H :    0.162295    0.000082
  22 H :    0.139908    0.000061
  23 H :    0.163837    0.000707
  24 H :    0.213841   -0.001168
  25 H :    0.221775    0.034006
  26 H :    0.197397   -0.030298
Sum of atomic charges         :    0.0000000

LOEWDIN ATOMIC CHARGES AND SPIN POPULATIONS
-------------------------------------------
   0 N :    0.138101    0.000782
   1 C :   -0.234695    0.032094
   2 C :   -0.441484    0.005648
   3 O :    0.064484   -0.000164
   4 C :   -0.238305    0.052107
   5 C :   -0.034827    0.643574
   6 C :   -0.538657    0.072964
   7 O :    0.059123    0.007748
   8 O :    0.103889    0.159490
   9 H :    0.196861    0.000281
  10 H :    0.170155    0.002764
  11 C :   -0.476964    0.000092
  12 N :    0.107137    0.003238
  13 H :    0.198669   -0.000857
  14 H :    0.184665    0.000195
  15 O :    0.057962    0.001646
  16 C :   -0.260544    0.000035
  17 H :    0.140194    0.000004
  18 H :    0.123414    0.000019
  19 H :    0.139908   -0.000003
  20 C :   -0.299719    0.000305
  21 H :    0.125481    0.000084
  22 H :    0.118256   -0.000002
  23 H :    0.121423    0.000144
  24 H :    0.150337   -0.000013
  25 H :    0.170903    0.020304
  26 H :    0.154233   -0.002479

  Mayer bond orders larger than 0.100000
B(  0-N ,  1-C ) :   0.8928 B(  0-N ,  9-H ) :   0.8769 B(  0-N , 11-C ) :   1.1922
B(  1-C ,  2-C ) :   0.9549 B(  1-C ,  4-C ) :   0.8628 B(  1-C , 10-H ) :   0.9615
B(  2-C ,  3-O ) :   1.9237 B(  2-C , 12-N ) :   1.2431 B(  4-C ,  5-C ) :   0.8768
B(  4-C , 24-H ) :   0.9835 B(  4-C , 25-H ) :   0.9394 B(  5-C ,  6-C ) :   1.1667
B(  5-C , 26-H ) :   0.9595 B(  6-C ,  7-O ) :   1.0986 B(  6-C ,  8-O ) :   2.0002
B(  7-O , 13-H ) :   0.8599 B( 11-C , 15-O ) :   1.9076 B( 11-C , 16-C ) :   0.9114
B( 12-N , 14-H ) :   0.9012 B( 12-N , 20-C ) :   0.9222 B( 16-C , 17-H ) :   0.9610
B( 16-C , 18-H ) :   0.9873 B( 16-C , 19-H ) :   0.9564 B( 20-C , 21-H ) :   0.9666
B( 20-C , 22-H ) :   0.9650 B( 20-C , 23-H ) :   0.9720

FINAL SINGLE POINT ENERGY      -723.083986753122

DIPOLE MOMENT
-------------
                                X             Y             Z
Electronic contribution:      2.16547       4.25329      -1.88506
Nuclear contribution   :     -1.29968      -4.42163       2.16919
                        -----------------------------------------
Total Dipole Moment    :      0.86579      -0.16834       0.28413
                        -----------------------------------------
Magnitude (a.u.)       :      0.92664
Magnitude (Debye)      :      2.35533

VIBRATIONAL FREQUENCIES
-----------------------

Scaling factor for frequencies =  1.000000000  (already applied!)

   0:         0.00 cm**-1
   1:         0.00 cm**-1
   2:         0.00 cm**-1
   3:         0.00 cm**-1
   4:         0.00 cm**-1
   5:         0.00 cm**-1
   6:       -44.88 cm**-1 ***imaginary mode***
   7:        38.94 cm**-1
   8:        55.03 cm**-1
   9:        62.01 cm**-1
  10:        69.24 cm**-1
  11:        86.52 cm**-1
  12:       100.67 cm**-1
  13:       111.33 cm**-1
  14:       128.59 cm**-1
  15:       171.02 cm**-1
  16:       192.72 cm**-1
  17:       234.87 cm**-1
  18:       267.05 cm**-1
  19:       302.19 cm**-1
  20:       357.85 cm**-1
  21:       382.95 cm**-1
  22:       484.70 cm**-1
  23:       499.75 cm**-1
  24:       514.09 cm**-1
  25:       536.39 cm**-1
  26:       554.00 cm**-1
  27:       579.93 cm**-1
  28:       598.62 cm**-1
  29:       616.34 cm**-1
  30:       629.38 cm**-1
  31:       665.37 cm**-1
  32:       692.17 cm**-1
  33:       763.29 cm**-1
  34:       803.48 cm**-1
  35:       855.37 cm**-1
  36:       911.91 cm**-1
  37:       934.52 cm**-1
  38:       976.60 cm**-1
  39:      1017.31 cm**-1
  40:      1030.30 cm**-1
  41:      1060.15 cm**-1
  42:      1085.76 cm**-1
  43:      1135.92 cm**-1
  44:      1155.99 cm**-1
  45:      1171.42 cm**-1
  46:      1193.69 cm**-1
  47:      1209.23 cm**-1
  48:      1221.93 cm**-1
  49:      1264.82 cm**-1
  50:      1280.35 cm**-1
  51:      1294.95 cm**-1
  52:      1338.18 cm**-1
  53:      1366.92 cm**-1
  54:      1388.09 cm**-1
  55:      1401.99 cm**-1
  56:      1449.04 cm**-1
  57:      1459.00 cm**-1
  58:      1473.70 cm**-1
  59:      1483.57 cm**-1
  60:      1485.20 cm**-1
  61:      1502.70 cm**-1
  62:      1514.91 cm**-1
  63:      1541.06 cm**-1
  64:      1587.70 cm**-1
  65:      1770.88 cm**-1
  66:      1776.53 cm**-1
  67:      1786.88 cm**-1
  68:      3059.34 cm**-1
  69:      3079.49 cm**-1
  70:      3080.02 cm**-1
  71:      3089.79 cm**-1
  72:      3147.40 cm**-1
  73:      3150.68 cm**-1
  74:      3172.04 cm**-1
  75:      3181.92 cm**-1
  76:      3188.30 cm**-1
  77:      3238.20 cm**-1
  78:      3603.04 cm**-1
  79:      3657.26 cm**-1
  80:      3819.95 cm**-1

IR SPECTRUM
-----------

 Mode   freq       eps      Int      T**2         TX        TY        TZ
       cm**-1   L/(mol*cm) km/mol    a.u.
----------------------------------------------------------------------------
  7:     38.94   0.000206    1.04  0.001652  ( 0.013098  0.011919  0.036579)
  8:     55.03   0.000181    0.92  0.001027  (-0.030774  0.007686  0.004558)
  9:     62.01   0.000402    2.03  0.002021  ( 0.006628 -0.044255  0.004271)
 10:     69.24   0.000230    1.16  0.001037  ( 0.004013 -0.031934 -0.001023)
 11:     86.52   0.001527    7.72  0.005508  ( 0.017276 -0.064788  0.031812)
 12:    100.67   0.000586    2.96  0.001817  ( 0.012298  0.039778  0.009115)
 13:    111.33   0.001438    7.27  0.004031  ( 0.033608 -0.053234  0.008206)
 14:    128.59   0.000827    4.18  0.002008  (-0.033735 -0.011346 -0.027221)
 15:    171.02   0.001405    7.10  0.002563  (-0.034154 -0.018047 -0.032724)
 16:    192.72   0.001288    6.51  0.002086  (-0.041551  0.015803 -0.010460)
 17:    234.87   0.000343    1.73  0.000456  ( 0.001205 -0.021119  0.002884)
 18:    267.05   0.001380    6.97  0.001612  ( 0.036553  0.011170  0.012300)
 19:    302.19   0.000507    2.56  0.000524  ( 0.014522 -0.014843  0.009626)
 20:    357.85   0.001147    5.80  0.001001  (-0.018252 -0.003868 -0.025542)
 21:    382.95   0.003428   17.32  0.002794  (-0.046742  0.018207 -0.016651)
 22:    484.70   0.011330   57.26  0.007295  (-0.033735  0.077473  0.012438)
 23:    499.75   0.002532   12.80  0.001581  ( 0.024547 -0.030223 -0.008063)
 24:    514.09   0.004889   24.71  0.002968  ( 0.049806  0.020120 -0.009059)
 25:    536.39   0.007715   38.99  0.004489  (-0.005875  0.066635 -0.003720)
 26:    554.00   0.014910   75.35  0.008398  (-0.006007 -0.031053  0.086012)
 27:    579.93   0.009659   48.81  0.005198  (-0.010896  0.071165  0.003807)
 28:    598.62   0.006774   34.23  0.003531  (-0.046724  0.035478 -0.009467)
 29:    616.34   0.005702   28.82  0.002887  ( 0.051443  0.011047  0.010893)
 30:    629.38   0.003532   17.85  0.001751  (-0.008638 -0.001512  0.040920)
 31:    665.37   0.002548   12.88  0.001195  ( 0.010975 -0.031691 -0.008392)
 32:    692.17   0.001486    7.51  0.000670  ( 0.004112  0.023155  0.010808)
 33:    763.29   0.009877   49.91  0.004038  (-0.000204 -0.036260  0.052186)
 34:    803.48   0.002263   11.44  0.000879  ( 0.012024  0.015270  0.022390)
 35:    855.37   0.002837   14.34  0.001035  ( 0.024577  0.018973  0.008436)
 36:    911.91   0.001166    5.89  0.000399  ( 0.001383  0.014000 -0.014183)
 37:    934.52   0.002760   13.95  0.000922  ( 0.028359 -0.003741  0.010164)
 38:    976.60   0.011957   60.43  0.003821  ( 0.061807  0.000693  0.000511)
 39:   1017.31   0.000625    3.16  0.000192  ( 0.004146 -0.002761 -0.012919)
 40:   1030.30   0.001087    5.50  0.000329  (-0.000510  0.013252  0.012389)
 41:   1060.15   0.001489    7.52  0.000438  (-0.001392  0.020734 -0.002530)
 42:   1085.76   0.000097    0.49  0.000028  ( 0.002007 -0.000562  0.004863)
 43:   1135.92   0.004744   23.97  0.001303  ( 0.033189  0.012491 -0.006759)
 44:   1155.99   0.000077    0.39  0.000021  (-0.003364 -0.001930 -0.002381)
 45:   1171.42   0.004761   24.06  0.001268  ( 0.032314 -0.014097 -0.005050)
 46:   1193.69   0.000700    3.54  0.000183  ( 0.007858  0.009787 -0.005040)
 47:   1209.23   0.034336  173.52  0.008861  (-0.093501  0.000268  0.010879)
 48:   1221.93   0.002910   14.71  0.000743  (-0.020026 -0.018266 -0.002915)
 49:   1264.82   0.005581   28.21  0.001377  (-0.033147 -0.014377 -0.008467)
 50:   1280.35   0.011106   56.12  0.002707  (-0.039458 -0.023309 -0.024630)
 51:   1294.95   0.001851    9.35  0.000446  ( 0.004790 -0.009868  0.018048)
 52:   1338.18   0.012307   62.19  0.002870  ( 0.043261  0.024182  0.020338)
 53:   1366.92   0.003446   17.42  0.000787  ( 0.014908 -0.002266  0.023652)
 54:   1388.09   0.003395   17.16  0.000763  ( 0.015549 -0.003231 -0.022608)
 55:   1401.99   0.007378   37.29  0.001642  (-0.038765 -0.006605 -0.009794)
 56:   1449.04   0.006414   32.42  0.001381  (-0.033923  0.015122  0.001378)
 57:   1459.00   0.003119   15.76  0.000667  (-0.024937 -0.005631 -0.003679)
 58:   1473.70   0.001450    7.33  0.000307  ( 0.001277 -0.017346  0.002141)
 59:   1483.57   0.004922   24.87  0.001035  ( 0.021699 -0.013714  0.019400)
 60:   1485.20   0.009242   46.71  0.001942  ( 0.016912  0.014230  0.038124)
 61:   1502.70   0.004604   23.26  0.000956  ( 0.004706  0.001431  0.030526)
 62:   1514.91   0.002666   13.47  0.000549  (-0.013257 -0.003492 -0.019005)
 63:   1541.06   0.109434  553.03  0.022160  ( 0.128874  0.036294  0.065073)
 64:   1587.70   0.026223  132.52  0.005154  ( 0.066154  0.004432  0.027535)
 65:   1770.88   0.060366  305.06  0.010638  ( 0.016103  0.101736  0.005309)
 66:   1776.53   0.093547  472.75  0.016432  ( 0.061924 -0.024521 -0.109529)
 67:   1786.88   0.013705   69.26  0.002393  ( 0.037556  0.020855  0.023410)
 68:   3059.34   0.002216   11.20  0.000226  ( 0.011093 -0.007659  0.006660)
 69:   3079.49   0.005992   30.28  0.000607  ( 0.015040  0.005782  0.018642)
 70:   3080.02   0.000656    3.31  0.000066  ( 0.007409  0.003175 -0.001211)
 71:   3089.79   0.000430    2.17  0.000043  (-0.005160  0.000131  0.004098)
 72:   3147.40   0.000771    3.90  0.000076  ( 0.004396 -0.007170 -0.002387)
 73:   3150.68   0.002040   10.31  0.000202  (-0.007566  0.012018 -0.000594)
 74:   3172.04   0.000196    0.99  0.000019  ( 0.000360  0.003869 -0.002057)
 75:   3181.92   0.001324    6.69  0.000130  (-0.002760  0.002551  0.010756)
 76:   3188.30   0.001245    6.29  0.000122  (-0.009787 -0.003869  0.003335)
 77:   3238.20   0.000429    2.17  0.000041  (-0.004263 -0.004804 -0.000252)
 78:   3603.04   0.021584  109.08  0.001869  (-0.006035 -0.001734 -0.042778)
 79:   3657.26   0.016490   83.33  0.001407  (-0.020354 -0.020394  0.024017)
 80:   3819.95   0.024752  125.09  0.002022  (-0.037740 -0.023916 -0.005084)

--------------------------
THERMOCHEMISTRY AT 298.15K
--------------------------

Temperature         ... 298.15 K
Pressure            ... 1.00 atm
Total Mass          ... 201.20 AMU

Throughout the following assumptions are being made:
  (1) The electronic state is orbitally nondegenerate
      but the spin degeneracy is treated
  (2) There are no thermally accessible electronically excited states
  (3) Hindered rotations indicated by low frequency modes are not
      treated as such but are treated as vibrations and this may
      cause some error
  (4) All equations used are the standard statistical mechanics
      equations for an ideal gas
  (5) All vibrations are strictly harmonic

freq.      38.94  E(vib)   ...       0.54
freq.      55.03  E(vib)   ...       0.52
freq.      62.01  E(vib)   ...       0.51
freq.      69.24  E(vib)   ...       0.50
freq.      86.52  E(vib)   ...       0.48
freq.     100.67  E(vib)   ...       0.46
freq.     111.33  E(vib)   ...       0.45
freq.     128.59  E(vib)   ...       0.43
freq.     171.02  E(vib)   ...       0.38
freq.     192.72  E(vib)   ...       0.36
freq.     234.87  E(vib)   ...       0.32
freq.     267.05  E(vib)   ...       0.29
freq.     302.19  E(vib)   ...       0.26
freq.     357.85  E(vib)   ...       0.22
freq.     382.95  E(vib)   ...       0.20
freq.     484.70  E(vib)   ...       0.15
freq.     499.75  E(vib)   ...       0.14
freq.     514.09  E(vib)   ...       0.13
freq.     536.39  E(vib)   ...       0.12
freq.     554.00  E(vib)   ...       0.12
freq.     579.93  E(vib)   ...       0.11
freq.     598.62  E(vib)   ...       0.10
freq.     616.34  E(vib)   ...       0.09
freq.     629.38  E(vib)   ...       0.09
freq.     665.37  E(vib)   ...       0.08
freq.     692.17  E(vib)   ...       0.07
freq.     763.29  E(vib)   ...       0.06
freq.     803.48  E(vib)   ...       0.05
freq.     855.37  E(vib)   ...       0.04
freq.     911.91  E(vib)   ...       0.03
freq.     934.52  E(vib)   ...       0.03
freq.     976.60  E(vib)   ...       0.03
freq.    1017.31  E(vib)   ...       0.02
freq.    1030.30  E(vib)   ...       0.02
freq.    1060.15  E(vib)   ...       0.02
freq.    1085.76  E(vib)   ...       0.02
freq.    1135.92  E(vib)   ...       0.01
freq.    1155.99  E(vib)   ...       0.01
freq.    1171.42  E(vib)   ...       0.01
freq.    1193.69  E(vib)   ...       0.01
freq.    1209.23  E(vib)   ...       0.01
freq.    1221.93  E(vib)   ...       0.01
freq.    1264.82  E(vib)   ...       0.01
freq.    1280.35  E(vib)   ...       0.01
freq.    1294.95  E(vib)   ...       0.01
freq.    1338.18  E(vib)   ...       0.01
freq.    1366.92  E(vib)   ...       0.01
freq.    1388.09  E(vib)   ...       0.00
freq.    1401.99  E(vib)   ...       0.00
freq.    1449.04  E(vib)   ...       0.00
freq.    1459.00  E(vib)   ...       0.00
freq.    1473.70  E(vib)   ...       0.00
freq.    1483.57  E(vib)   ...       0.00
freq.    1485.20  E(vib)   ...       0.00
freq.    1502.70  E(vib)   ...       0.00
freq.    1514.91  E(vib)   ...       0.00
freq.    1541.06  E(vib)   ...       0.00
freq.    1587.70  E(vib)   ...       0.00
freq.    1770.88  E(vib)   ...       0.00
freq.    1776.53  E(vib)   ...       0.00
freq.    1786.88  E(vib)   ...       0.00
freq.    3059.34  E(vib)   ...       0.00
freq.    3079.49  E(vib)   ...       0.00
freq.    3080.02  E(vib)   ...       0.00
freq.    3089.79  E(vib)   ...       0.00
freq.    3147.40  E(vib)   ...       0.00
freq.    3150.68  E(vib)   ...       0.00
freq.    3172.04  E(vib)   ...       0.00
freq.    3181.92  E(vib)   ...       0.00
freq.    3188.30  E(vib)   ...       0.00
freq.    3238.20  E(vib)   ...       0.00
freq.    3603.04  E(vib)   ...       0.00
freq.    3657.26  E(vib)   ...       0.00
freq.    3819.95  E(vib)   ...       0.00

------------
INNER ENERGY
------------

The inner energy is: U= E(el) + E(ZPE) + E(vib) + E(rot) + E(trans)
    E(el)   - is the total energy from the electronic structure calculation
              = E(kin-el) + E(nuc-el) + E(el-el) + E(nuc-nuc)
    E(ZPE)  - the the zero temperature vibrational energy from the frequency calculation
    E(vib)  - the the finite temperature correction to E(ZPE) due to population
              of excited vibrational states
    E(rot)  - is the rotational thermal energy
    E(trans)- is the translational thermal energy

Summary of contributions to the inner energy U:
Electronic energy                ...   -723.08398675 Eh
Zero point energy                ...      0.21891477 Eh     137.37 kcal/mol
Thermal vibrational correction   ...      0.01207600 Eh       7.58 kcal/mol
Thermal rotational correction    ...      0.00141627 Eh       0.89 kcal/mol
Thermal translational correction ...      0.00141627 Eh       0.89 kcal/mol
-----------------------------------------------------------------------
Total thermal energy                   -722.85016344 Eh

Summary of corrections to the electronic energy:
(perhaps to be used in another calculation)
Total thermal correction                  0.01490854 Eh       9.36 kcal/mol
Non-thermal (ZPE) correction              0.21891477 Eh     137.37 kcal/mol
-----------------------------------------------------------------------
Total correction                          0.23382331 Eh     146.73 kcal/mol

--------
ENTHALPY
--------

The enthalpy is H = U + kB*T
                kB is Boltzmann's constant
Total free energy                 ...   -722.85016344 Eh
Thermal Enthalpy correction       ...      0.00094421 Eh       0.59 kcal/mol
-----------------------------------------------------------------------
Total Enthalpy                    ...   -722.84921923 Eh

Note: Only C1 symmetry has been detected, increase convergence thresholds
      if your molecule has a higher symmetry. Symmetry factor of 1.0 is
      used for the rotational entropy correction.

Note: Rotational entropy computed according to Herzberg
Infrared and Raman Spectra, Chapter V,1, Van Nostrand Reinhold, 1945
Point Group:  C1, Symmetry Number:   1
Rotational constants in cm-1:     0.030604     0.014611     0.011496

Vibrational entropy computed according to the QRRHO of S. Grimme
Chem.Eur.J. 2012 18 9955

-------
ENTROPY
-------

The entropy contributions are T*S = T*(S(el)+S(vib)+S(rot)+S(trans))
     S(el)   - electronic entropy
     S(vib)  - vibrational entropy
     S(rot)  - rotational entropy
     S(trans)- translational entropy
The entropies will be listed as multiplied by the temperature to get
units of energy

                             ****ORCA TERMINATED NORMALLY****
TOTAL RUN TIME: 0 days 1 hours 19 minutes 43 seconds 728 msec
