                         Program Version 5.0.4 -  RELEASE  -
|  1> ! B3LYP EPR-II OPT
|  2> %pal nprocs 16 end
|  3> *XYZFile 0 2 model.xyz
|  4>
|  5>                          ****END OF INPUT****
 Total Charge           Charge          ....    0
 Multiplicity           Mult            ....    2
 Number of Electrons    NEL             ....  107
FINAL SINGLE POINT ENERGY      -722.848206497864
FINAL SINGLE POINT ENERGY      -722.850189507995
FINAL SINGLE POINT ENERGY      -722.850293709284
FINAL SINGLE POINT ENERGY      -722.850312703223
FINAL SINGLE POINT ENERGY      -722.850321823008
FINAL SINGLE POINT ENERGY      -722.850324587787
                    ***********************HURRAY********************

CARTESIAN COORDINATES (ANGSTROEM)
---------------------------------
  N     -4.445475   -4.718182   -0.765658
  C     -2.995774   -4.715649   -0.800385
  C     -2.511813   -4.684955    0.666264
  O     -3.286285   -4.453622    1.596418
  C     -2.423852   -3.524759   -1.626733
  C     -2.778219   -2.182832   -1.076858
  C     -1.948386   -0.995559   -1.190269
  O     -0.734101   -1.216122   -1.790192
  O     -2.275973    0.119436   -0.795982
  H     -4.854390   -4.568801    0.148991
  H     -2.648475   -5.637205   -1.283869
  C     -5.197621   -5.102735   -1.842321
  N     -1.184634   -4.913233    0.853175
  H     -0.293226   -0.352705   -1.809923
  H     -0.599955   -5.087747    0.051187
  O     -4.686964   -5.393799   -2.924918
  C     -6.704952   -5.144947   -1.619726
  H     -7.044265   -6.177245   -1.745069
  H     -7.008779   -4.783534   -0.633899
  H     -7.187756   -4.542057   -2.392901
  C     -0.572642   -4.856270    2.179418
  H     -1.079387   -5.543310    2.861896
  H      0.476767   -5.143148    2.092765
  H     -0.637267   -3.847301    2.597811
  H     -1.339290   -3.616708   -1.738924
  H     -2.847115   -3.635119   -2.637473
  H     -3.739082   -2.024958   -0.597969

 Multiplicity           Mult            ....    2
 Number of Electrons    NEL             ....  107
 Basis Dimension        Dim             ....  329

ORBITAL ENERGIES
----------------
                 SPIN UP ORBITALS
  NO   OCC          E(Eh)            E(eV)
   0   1.0000     -19.189049      -522.1606
   1   1.0000     -19.139173      -520.8034
   2   1.0000     -19.131811      -520.6030
   3   1.0000     -19.110843      -520.0325
   4   1.0000     -14.380440      -391.3117
   5   1.0000     -14.361081      -390.7849
   6   1.0000     -10.326002      -280.9848
   7   1.0000     -10.312382      -280.6142
   8   1.0000     -10.298348      -280.2323
   9   1.0000     -10.255746      -279.0730
  10   1.0000     -10.234896      -278.5057
  11   1.0000     -10.232184      -278.4319
  12   1.0000     -10.214850      -277.9602
  13   1.0000     -10.192887      -277.3626
  14   1.0000      -1.102223       -29.9930
  15   1.0000      -1.055499       -28.7216
  16   1.0000      -1.033432       -28.1211
  17   1.0000      -1.013781       -27.5864
  18   1.0000      -0.939726       -25.5713
  19   1.0000      -0.929013       -25.2797
  20   1.0000      -0.819370       -22.2962
  21   1.0000      -0.764249       -20.7963
  22   1.0000      -0.734770       -19.9941
  23   1.0000      -0.707866       -19.2620
  24   1.0000      -0.657125       -17.8813
  25   1.0000      -0.607825       -16.5398
  26   1.0000      -0.605796       -16.4846
  27   1.0000      -0.580414       -15.7939
  28   1.0000      -0.547888       -14.9088
  29   1.0000      -0.509473       -13.8635
  30   1.0000      -0.490371       -13.3437
  31   1.0000      -0.483717       -13.1626
  32   1.0000      -0.475492       -12.9388
  33   1.0000      -0.472281       -12.8514
  34   1.0000      -0.462810       -12.5937
  35   1.0000      -0.456209       -12.4141
  36   1.0000      -0.454387       -12.3645
  37   1.0000      -0.437059       -11.8930
  38   1.0000      -0.431312       -11.7366
  39   1.0000      -0.414235       -11.2719
  40   1.0000      -0.411846       -11.2069
  41   1.0000      -0.408833       -11.1249
  42   1.0000      -0.401306       -10.9201
  43   1.0000      -0.396718       -10.7953
  44   1.0000      -0.381812       -10.3896
  45   1.0000      -0.379273       -10.3205
  46   1.0000      -0.354595        -9.6490
  47   1.0000      -0.332301        -9.0424
  48   1.0000      -0.285689        -7.7740
  49   1.0000      -0.280821        -7.6415
  50   1.0000      -0.279459        -7.6045
  51   1.0000      -0.266551        -7.2532
  52   1.0000      -0.256937        -6.9916
  53   1.0000      -0.236584        -6.4378
  54   0.0000      -0.004376        -0.1191
  55   0.0000       0.005106         0.1389
  56   0.0000       0.018439         0.5018
  57   0.0000       0.019971         0.5434
  58   0.0000       0.027919         0.7597

                 SPIN DOWN ORBITALS
  NO   OCC          E(Eh)            E(eV)
   0   1.0000     -19.188711      -522.1514
   1   1.0000     -19.133883      -520.6594
   2   1.0000     -19.131742      -520.6012
   3   1.0000     -19.110695      -520.0285
   4   1.0000     -14.380437      -391.3116
   5   1.0000     -14.361025      -390.7834
   6   1.0000     -10.327158      -281.0162
   7   1.0000     -10.312372      -280.6139
   8   1.0000     -10.298365      -280.2328
   9   1.0000     -10.255312      -279.0612
  10   1.0000     -10.232184      -278.4319
  11   1.0000     -10.223065      -278.1837
  12   1.0000     -10.215441      -277.9763
  13   1.0000     -10.192883      -277.3625
  14   1.0000      -1.099343       -29.9146
  15   1.0000      -1.055349       -28.7175
  16   1.0000      -1.033217       -28.1153
  17   1.0000      -1.006228       -27.3809
  18   1.0000      -0.939683       -25.5701
  19   1.0000      -0.928603       -25.2686
  20   1.0000      -0.809333       -22.0231
  21   1.0000      -0.755097       -20.5472
  22   1.0000      -0.734412       -19.9844
  23   1.0000      -0.702761       -19.1231
  24   1.0000      -0.654589       -17.8123
  25   1.0000      -0.607521       -16.5315
  26   1.0000      -0.600043       -16.3280
  27   1.0000      -0.577335       -15.7101
  28   1.0000      -0.547343       -14.8940
  29   1.0000      -0.506859       -13.7923
  30   1.0000      -0.486612       -13.2414
  31   1.0000      -0.483306       -13.1514
  32   1.0000      -0.471970       -12.8430
  33   1.0000      -0.469570       -12.7776
  34   1.0000      -0.461304       -12.5527
  35   1.0000      -0.453438       -12.3387
  36   1.0000      -0.444679       -12.1003
  37   1.0000      -0.432023       -11.7559
  38   1.0000      -0.429507       -11.6875
  39   1.0000      -0.413681       -11.2568
  40   1.0000      -0.409105       -11.1323
  41   1.0000      -0.406521       -11.0620
  42   1.0000      -0.398798       -10.8518
  43   1.0000      -0.394166       -10.7258
  44   1.0000      -0.379857       -10.3364
  45   1.0000      -0.377507       -10.2725
  46   1.0000      -0.353783        -9.6269
  47   1.0000      -0.314160        -8.5487
  48   1.0000      -0.281790        -7.6679
  49   1.0000      -0.279056        -7.5935
  50   1.0000      -0.277412        -7.5488
  51   1.0000      -0.262179        -7.1342
  52   1.0000      -0.256249        -6.9729
  53   0.0000      -0.117092        -3.1862
  54   0.0000      -0.003820        -0.1040
  55   0.0000       0.005279         0.1436
  56   0.0000       0.018674         0.5081
  57   0.0000       0.020202         0.5497

MULLIKEN ATOMIC CHARGES AND SPIN POPULATIONS
--------------------------------------------
   0 N :   -0.118517    0.001668
   1 C :   -0.135736    0.016031
   2 C :    0.114052    0.000612
   3 O :   -0.326491    0.002854
   4 C :   -0.274022   -0.048062
   5 C :   -0.026677    0.854042
   6 C :    0.057950   -0.053520
   7 O :   -0.288380    0.013095
   8 O :   -0.272136    0.192976
   9 H :    0.256713   -0.000072
  10 H :    0.164685    0.001267
  11 C :    0.177533   -0.001216
  12 N :   -0.106932   -0.000898
  13 H :    0.289137   -0.001711
  14 H :    0.235957    0.000106
  15 O :   -0.323120    0.004434
  16 C :   -0.550699    0.000216
  17 H :    0.187511    0.000003
  18 H :    0.150701    0.000021
  19 H :    0.187802   -0.000013
  20 C :   -0.436466    0.000180
  21 H :    0.185799    0.000087
  22 H :    0.144522    0.000004
  23 H :    0.183493   -0.000001
  24 H :    0.153353    0.009373
  25 H :    0.203115    0.048500
  26 H :    0.166855   -0.039976
Sum of atomic charges         :    0.0000000

LOEWDIN ATOMIC CHARGES AND SPIN POPULATIONS
-------------------------------------------
   0 N :    0.062195    0.002268
   1 C :   -0.042379    0.016520
   2 C :   -0.091268    0.003083
   3 O :   -0.181507    0.002335
   4 C :   -0.050639    0.011009
   5 C :    0.044344    0.697425
   6 C :   -0.120244    0.010893
   7 O :   -0.007934    0.012798
   8 O :   -0.144182    0.185193
   9 H :    0.092134    0.000128
  10 H :    0.068510    0.000912
  11 C :   -0.100972   -0.000179
  12 N :    0.044095    0.000067
  13 H :    0.099209   -0.000243
  14 H :    0.080491    0.000215
  15 O :   -0.194437    0.004356
  16 C :   -0.039663    0.000134
  17 H :    0.055856   -0.000016
  18 H :    0.035088    0.000019
  19 H :    0.055463   -0.000004
  20 C :    0.015398    0.000139
  21 H :    0.042335    0.000005
  22 H :    0.033607    0.000006
  23 H :    0.040602   -0.000008
  24 H :    0.056988    0.008044
  25 H :    0.082761    0.040995
  26 H :    0.064149    0.003904

  Mayer bond orders larger than 0.100000
B(  0-N ,  1-C ) :   1.0291 B(  0-N ,  9-H ) :   0.8876 B(  0-N , 11-C ) :   1.2023
B(  1-C ,  2-C ) :   0.9012 B(  1-C ,  4-C ) :   0.9400 B(  1-C , 10-H ) :   0.9666
B(  1-C , 15-O ) :   0.1367 B(  2-C ,  3-O ) :   1.8423 B(  2-C , 12-N ) :   1.2170
B(  4-C ,  5-C ) :   1.0113 B(  4-C , 24-H ) :   0.9554 B(  4-C , 25-H ) :   0.9258
B(  5-C ,  6-C ) :   1.1148 B(  5-C ,  8-O ) :   0.1169 B(  5-C , 26-H ) :   0.9840
B(  6-C ,  7-O ) :   1.0860 B(  6-C ,  8-O ) :   1.8551 B(  7-O , 13-H ) :   0.8965
B( 11-C , 15-O ) :   1.8559 B( 11-C , 16-C ) :   0.8971 B( 12-N , 14-H ) :   0.9329
B( 12-N , 20-C ) :   0.9619 B( 16-C , 17-H ) :   0.9554 B( 16-C , 18-H ) :   0.9749
B( 16-C , 19-H ) :   0.9591 B( 20-C , 21-H ) :   0.9514 B( 20-C , 22-H ) :   0.9671
B( 20-C , 23-H ) :   0.9500

FINAL SINGLE POINT ENERGY      -722.850329155021

DIPOLE MOMENT
-------------
                                X             Y             Z
Electronic contribution:      1.44597       5.82240      -2.63132
Nuclear contribution   :     -0.28722      -6.64767       3.11473
                        -----------------------------------------
Total Dipole Moment    :      1.15876      -0.82527       0.48341
                        -----------------------------------------
Magnitude (a.u.)       :      1.50249
Magnitude (Debye)      :      3.81903

Rotational constants in cm-1:     0.022294     0.015454     0.010824
Rotational constants in MHz :   668.354167   463.298454   324.492514

                             ****ORCA TERMINATED NORMALLY****
TOTAL RUN TIME: 0 days 0 hours 14 minutes 26 seconds 532 msec
