                         Program Version 5.0.4 -  RELEASE  -
|  1> ! B3LYP EPR-II AUTOAUX
|  2> %pal nprocs 16 end
|  3> *XYZFile -1 2 opt.xyz
|  4> %EPRNMR
|  5>         GTENSOR   TRUE
|  6>         NUCLEI    = 1,7,9,10,11,24,25,26 {SHIFT, AISO, ADIP, AORB}
|  7>         ORI       GIAO
|  8> END
|  9>
| 10>                          ****END OF INPUT****

CARTESIAN COORDINATES (ANGSTROEM)
---------------------------------
  N     -3.814430   -0.002270   -0.039979
  C     -2.362869   -0.164275   -0.136599
  C     -1.843699   -0.189760    1.326102
  O     -2.602168   -0.610090    2.223502
  C     -1.692814    0.861280   -1.096585
  C     -1.673451    2.292821   -0.641845
  H     -2.572692    2.900473   -0.725078
  C     -0.414783    2.960127   -0.174253
  O      0.543379    2.170901    0.179821
  O     -0.395470    4.215979   -0.188372
  H     -4.140225    0.018946    0.920119
  C     -4.676665   -0.424613   -1.004136
  N     -0.567663    0.186820    1.527261
  H     -0.102318    0.887106    0.869137
  O     -4.325540   -0.824936   -2.118324
  C     -6.160563   -0.341510   -0.633204
  H     -6.652526    0.340283   -1.333060
  H     -6.606888   -1.331669   -0.762451
  H     -6.335132    0.007397    0.388383
  C     -0.043580    0.193475    2.888544
  H     -0.015596   -0.819814    3.303282
  H      0.968061    0.602850    2.855564
  H     -0.657713    0.809925    3.556259
  H     -2.159528   -1.164825   -0.548084
  H     -0.660182    0.533948   -1.254649
  H     -2.226229    0.759224   -2.050107

 Total Charge           Charge          ....   -1
 Multiplicity           Mult            ....    2
 Number of Electrons    NEL             ....  107
 Basis Dimension        Dim             ....  322

ORBITAL ENERGIES
----------------
                 SPIN UP ORBITALS
  NO   OCC          E(Eh)            E(eV)
   0   1.0000     -19.004526      -517.1394
   1   1.0000     -18.992368      -516.8086
   2   1.0000     -18.929207      -515.0899
   3   1.0000     -18.928093      -515.0596
   4   1.0000     -14.245029      -387.6270
   5   1.0000     -14.214930      -386.8079
   6   1.0000     -10.190776      -277.3051
   7   1.0000     -10.169532      -276.7270
   8   1.0000     -10.122059      -275.4352
   9   1.0000     -10.121503      -275.4201
  10   1.0000     -10.100102      -274.8377
  11   1.0000     -10.093710      -274.6638
  12   1.0000     -10.064502      -273.8690
  13   1.0000     -10.059904      -273.7439
  14   1.0000      -0.924956       -25.1693
  15   1.0000      -0.908147       -24.7119
  16   1.0000      -0.859627       -23.3916
  17   1.0000      -0.810927       -22.0664
  18   1.0000      -0.787796       -21.4370
  19   1.0000      -0.771414       -20.9912
  20   1.0000      -0.672587       -18.3020
  21   1.0000      -0.634309       -17.2604
  22   1.0000      -0.593695       -16.1553
  23   1.0000      -0.559663       -15.2292
  24   1.0000      -0.500297       -13.6138
  25   1.0000      -0.461264       -12.5516
  26   1.0000      -0.437814       -11.9135
  27   1.0000      -0.416202       -11.3254
  28   1.0000      -0.377708       -10.2779
  29   1.0000      -0.366906        -9.9840
  30   1.0000      -0.351656        -9.5691
  31   1.0000      -0.345207        -9.3936
  32   1.0000      -0.334875        -9.1124
  33   1.0000      -0.325437        -8.8556
  34   1.0000      -0.316370        -8.6089
  35   1.0000      -0.305044        -8.3007
  36   1.0000      -0.296881        -8.0785
  37   1.0000      -0.290056        -7.8928
  38   1.0000      -0.283521        -7.7150
  39   1.0000      -0.269232        -7.3262
  40   1.0000      -0.261427        -7.1138
  41   1.0000      -0.251602        -6.8465
  42   1.0000      -0.242711        -6.6045
  43   1.0000      -0.233023        -6.3409
  44   1.0000      -0.228771        -6.2252
  45   1.0000      -0.218483        -5.9452
  46   1.0000      -0.156434        -4.2568
  47   1.0000      -0.149006        -4.0547
  48   1.0000      -0.142764        -3.8848
  49   1.0000      -0.129741        -3.5304
  50   1.0000      -0.098403        -2.6777
  51   1.0000      -0.092924        -2.5286
  52   1.0000      -0.079338        -2.1589
  53   1.0000      -0.063507        -1.7281
  54   0.0000       0.102273         2.7830
  55   0.0000       0.119414         3.2494
  56   0.0000       0.128632         3.5003
  57   0.0000       0.136706         3.7200
  58   0.0000       0.153775         4.1844

                 SPIN DOWN ORBITALS
  NO   OCC          E(Eh)            E(eV)
   0   1.0000     -19.004492      -517.1385
   1   1.0000     -18.992349      -516.8081
   2   1.0000     -18.928263      -515.0642
   3   1.0000     -18.924752      -514.9687
   4   1.0000     -14.245078      -387.6283
   5   1.0000     -14.214904      -386.8072
   6   1.0000     -10.190775      -277.3051
   7   1.0000     -10.169567      -276.7280
   8   1.0000     -10.122679      -275.4521
   9   1.0000     -10.120726      -275.3990
  10   1.0000     -10.100103      -274.8378
  11   1.0000     -10.093712      -274.6639
  12   1.0000     -10.065320      -273.8913
  13   1.0000     -10.047347      -273.4022
  14   1.0000      -0.924889       -25.1675
  15   1.0000      -0.908080       -24.7101
  16   1.0000      -0.855863       -23.2892
  17   1.0000      -0.810660       -22.0592
  18   1.0000      -0.786618       -21.4050
  19   1.0000      -0.767719       -20.8907
  20   1.0000      -0.668945       -18.2029
  21   1.0000      -0.630568       -17.1586
  22   1.0000      -0.587749       -15.9935
  23   1.0000      -0.553014       -15.0483
  24   1.0000      -0.490430       -13.3453
  25   1.0000      -0.458701       -12.4819
  26   1.0000      -0.436185       -11.8692
  27   1.0000      -0.415806       -11.3147
  28   1.0000      -0.376050       -10.2328
  29   1.0000      -0.366325        -9.9682
  30   1.0000      -0.348238        -9.4760
  31   1.0000      -0.342949        -9.3321
  32   1.0000      -0.332883        -9.0582
  33   1.0000      -0.324758        -8.8371
  34   1.0000      -0.314647        -8.5620
  35   1.0000      -0.304570        -8.2878
  36   1.0000      -0.293826        -7.9954
  37   1.0000      -0.288113        -7.8400
  38   1.0000      -0.279703        -7.6111
  39   1.0000      -0.267914        -7.2903
  40   1.0000      -0.259704        -7.0669
  41   1.0000      -0.247174        -6.7259
  42   1.0000      -0.240764        -6.5515
  43   1.0000      -0.230393        -6.2693
  44   1.0000      -0.222145        -6.0449
  45   1.0000      -0.214389        -5.8338
  46   1.0000      -0.154765        -4.2114
  47   1.0000      -0.148738        -4.0474
  48   1.0000      -0.141922        -3.8619
  49   1.0000      -0.129293        -3.5182
  50   1.0000      -0.088784        -2.4159
  51   1.0000      -0.084829        -2.3083
  52   1.0000      -0.070470        -1.9176
  53   0.0000       0.060638         1.6501
  54   0.0000       0.102558         2.7907
  55   0.0000       0.119972         3.2646
  56   0.0000       0.128863         3.5065
  57   0.0000       0.137078         3.7301

MULLIKEN ATOMIC CHARGES AND SPIN POPULATIONS
--------------------------------------------
   0 N :   -0.096394   -0.002003
   1 C :   -0.050064    0.048177
   2 C :    0.026648    0.006150
   3 O :   -0.405114   -0.000863
   4 C :   -0.342255   -0.050450
   5 C :   -0.141983    0.931872
   6 H :    0.122974   -0.043281
   7 C :    0.102309   -0.073651
   8 O :   -0.450021    0.035528
   9 O :   -0.424845    0.122069
  10 H :    0.237831    0.000399
  11 C :    0.177756   -0.001065
  12 N :   -0.061130   -0.002342
  13 H :    0.257913   -0.001691
  14 O :   -0.347476    0.001077
  15 C :   -0.575783    0.000067
  16 H :    0.176181    0.000018
  17 H :    0.172424    0.000030
  18 H :    0.148745    0.000016
  19 C :   -0.471813   -0.000500
  20 H :    0.151644    0.000081
  21 H :    0.157185   -0.000001
  22 H :    0.161753    0.000278
  23 H :    0.158522    0.004716
  24 H :    0.167147    0.004498
  25 H :    0.147847    0.020871
Sum of atomic charges         :   -1.0000000

LOEWDIN ATOMIC CHARGES AND SPIN POPULATIONS
-------------------------------------------
   0 N :    0.066190    0.000090
   1 C :   -0.039674    0.047401
   2 C :   -0.106282    0.002700
   3 O :   -0.249877    0.000549
   4 C :   -0.076168    0.012143
   5 C :   -0.021573    0.761545
   6 H :    0.036924    0.006030
   7 C :   -0.214586   -0.012573
   8 O :   -0.324262    0.035151
   9 O :   -0.275682    0.120073
  10 H :    0.088712    0.000766
  11 C :   -0.112020    0.000445
  12 N :    0.032321    0.001401
  13 H :    0.080843    0.000125
  14 O :   -0.214639    0.001058
  15 C :   -0.056360    0.000040
  16 H :    0.048309    0.000047
  17 H :    0.046519   -0.000002
  18 H :    0.031415    0.000011
  19 C :   -0.014513   -0.000001
  20 H :    0.027587    0.000116
  21 H :    0.034350   -0.000004
  22 H :    0.032145    0.000072
  23 H :    0.066894    0.003099
  24 H :    0.057124    0.002972
  25 H :    0.056303    0.016748

  Mayer bond orders larger than 0.100000
B(  0-N ,  1-C ) :   1.0062 B(  0-N , 10-H ) :   0.8959 B(  0-N , 11-C ) :   1.2331
B(  1-C ,  2-C ) :   0.9130 B(  1-C ,  4-C ) :   0.9317 B(  1-C , 14-O ) :   0.1086
B(  1-C , 23-H ) :   0.9770 B(  2-C ,  3-O ) :   1.7243 B(  2-C , 12-N ) :   1.2886
B(  4-C ,  5-C ) :   0.9830 B(  4-C , 24-H ) :   0.9590 B(  4-C , 25-H ) :   0.9716
B(  5-C ,  6-H ) :   1.0013 B(  5-C ,  7-C ) :   1.0398 B(  5-C ,  9-O ) :   0.1367
B(  7-C ,  8-O ) :   1.4093 B(  7-C ,  9-O ) :   1.6368 B(  8-O , 13-H ) :   0.2293
B( 11-C , 14-O ) :   1.8210 B( 11-C , 15-C ) :   0.8786 B( 12-N , 13-H ) :   0.7452
B( 12-N , 19-C ) :   0.9581 B( 15-C , 16-H ) :   0.9662 B( 15-C , 17-H ) :   0.9675
B( 15-C , 18-H ) :   0.9775 B( 19-C , 20-H ) :   0.9654 B( 19-C , 21-H ) :   0.9692
B( 19-C , 22-H ) :   0.9554

FINAL SINGLE POINT ENERGY      -722.312212784255

DIPOLE MOMENT
-------------
                                X             Y             Z
Electronic contribution:      2.85152       2.64763      -2.35497
Nuclear contribution   :     -5.14613      -4.95824       2.98336
                        -----------------------------------------
Total Dipole Moment    :     -2.29461      -2.31061       0.62839
                        -----------------------------------------
Magnitude (a.u.)       :      3.31648
Magnitude (Debye)      :      8.42982

Rotational constants in cm-1:     0.030718     0.014511     0.011094
Rotational constants in MHz :   920.902604   435.027717   332.583342

CHEMICAL SHIELDING SUMMARY (ppm)  --  Orbital contribution
----------------------------------------------------------

  Nucleus  Element    Isotropic     Anisotropy
  -------  -------  ------------   ------------
      0       N          115.494        103.824
      6       H           26.856          7.818
      8       O           25.963        339.848
      9       O          -82.916       -356.490
     10       H           25.507          7.984
     23       H           27.761          4.310
     24       H           28.883          5.106
     25       H           28.788          5.813

                             ****ORCA TERMINATED NORMALLY****
TOTAL RUN TIME: 0 days 0 hours 3 minutes 32 seconds 856 msec
