                         Program Version 5.0.4 -  RELEASE  -
|  1> ! M062X def2-TZVP OPT FREQ
|  2> %pal nprocs 16 end
|  3> *XYZFile -1 2 opt.xyz
|  4>
|  5>                          ****END OF INPUT****
 Total Charge           Charge          ....   -1
 Multiplicity           Mult            ....    2
 Number of Electrons    NEL             ....  107
FINAL SINGLE POINT ENERGY      -722.544770501657
FINAL SINGLE POINT ENERGY      -722.530171448971
FINAL SINGLE POINT ENERGY      -722.539815167800
FINAL SINGLE POINT ENERGY      -722.542159159748
FINAL SINGLE POINT ENERGY      -722.547450778599
FINAL SINGLE POINT ENERGY      -722.545188575891
FINAL SINGLE POINT ENERGY      -722.547548417565
FINAL SINGLE POINT ENERGY      -722.545995157654
FINAL SINGLE POINT ENERGY      -722.548190552771
FINAL SINGLE POINT ENERGY      -722.548232221301
FINAL SINGLE POINT ENERGY      -722.548247690896
FINAL SINGLE POINT ENERGY      -722.548251689790
FINAL SINGLE POINT ENERGY      -722.548254427376
                    ***********************HURRAY********************

CARTESIAN COORDINATES (ANGSTROEM)
---------------------------------
  N     -3.792675   -0.034171   -0.014184
  C     -2.355801   -0.211353   -0.118832
  C     -1.819467   -0.224950    1.320311
  O     -2.538170   -0.657490    2.222489
  C     -1.700370    0.809247   -1.064177
  C     -1.726209    2.221376   -0.595376
  H     -2.643574    2.793965   -0.647842
  C     -0.485899    2.930591   -0.153481
  O      0.500271    2.179287    0.144946
  O     -0.524885    4.167742   -0.122661
  H     -4.134834    0.053416    0.931781
  C     -4.642742   -0.405892   -0.990110
  N     -0.569894    0.197249    1.498895
  H     -0.110220    0.880488    0.823436
  O     -4.281833   -0.814521   -2.081535
  C     -6.115985   -0.265337   -0.659488
  H     -6.559212    0.432734   -1.368883
  H     -6.594313   -1.233942   -0.800076
  H     -6.296200    0.089139    0.354051
  C     -0.041998    0.230523    2.844932
  H      0.019662   -0.775253    3.263982
  H      0.949568    0.676051    2.802997
  H     -0.676583    0.826827    3.505264
  H     -2.170169   -1.210982   -0.529801
  H     -0.661287    0.509999   -1.213889
  H     -2.218462    0.703047   -2.021498

 Multiplicity           Mult            ....    2
 Number of Electrons    NEL             ....  107
 Basis Dimension        Dim             ....  506

ORBITAL ENERGIES
----------------
                 SPIN UP ORBITALS
  NO   OCC          E(Eh)            E(eV)
   0   1.0000     -19.487589      -530.2843
   1   1.0000     -19.473646      -529.9049
   2   1.0000     -19.411572      -528.2157
   3   1.0000     -19.406108      -528.0670
   4   1.0000     -14.662957      -398.9993
   5   1.0000     -14.629100      -398.0780
   6   1.0000     -10.540298      -286.8161
   7   1.0000     -10.517372      -286.1923
   8   1.0000     -10.471443      -284.9424
   9   1.0000     -10.468471      -284.8616
  10   1.0000     -10.450945      -284.3847
  11   1.0000     -10.444728      -284.2155
  12   1.0000     -10.413669      -283.3703
  13   1.0000     -10.410803      -283.2924
  14   1.0000      -1.059925       -28.8420
  15   1.0000      -1.041145       -28.3310
  16   1.0000      -0.995517       -27.0894
  17   1.0000      -0.929611       -25.2960
  18   1.0000      -0.909665       -24.7532
  19   1.0000      -0.893481       -24.3129
  20   1.0000      -0.781600       -21.2684
  21   1.0000      -0.737116       -20.0579
  22   1.0000      -0.693077       -18.8596
  23   1.0000      -0.654482       -17.8094
  24   1.0000      -0.593165       -16.1408
  25   1.0000      -0.550516       -14.9803
  26   1.0000      -0.526523       -14.3274
  27   1.0000      -0.503440       -13.6993
  28   1.0000      -0.465295       -12.6613
  29   1.0000      -0.449040       -12.2190
  30   1.0000      -0.436563       -11.8795
  31   1.0000      -0.426852       -11.6152
  32   1.0000      -0.419164       -11.4060
  33   1.0000      -0.405266       -11.0279
  34   1.0000      -0.392795       -10.6885
  35   1.0000      -0.382721       -10.4144
  36   1.0000      -0.377756       -10.2793
  37   1.0000      -0.367884       -10.0106
  38   1.0000      -0.359013        -9.7692
  39   1.0000      -0.341586        -9.2950
  40   1.0000      -0.339081        -9.2269
  41   1.0000      -0.333999        -9.0886
  42   1.0000      -0.323572        -8.8049
  43   1.0000      -0.310249        -8.4423
  44   1.0000      -0.304358        -8.2820
  45   1.0000      -0.291839        -7.9414
  46   1.0000      -0.231293        -6.2938
  47   1.0000      -0.224707        -6.1146
  48   1.0000      -0.215611        -5.8671
  49   1.0000      -0.197516        -5.3747
  50   1.0000      -0.171915        -4.6781
  51   1.0000      -0.170653        -4.6437
  52   1.0000      -0.157972        -4.2986
  53   1.0000      -0.124856        -3.3975
  54   0.0000       0.154835         4.2133
  55   0.0000       0.161343         4.3904
  56   0.0000       0.178156         4.8479
  57   0.0000       0.193730         5.2717
  58   0.0000       0.205637         5.5957

                 SPIN DOWN ORBITALS
  NO   OCC          E(Eh)            E(eV)
   0   1.0000     -19.487559      -530.2834
   1   1.0000     -19.473635      -529.9046
   2   1.0000     -19.411020      -528.2007
   3   1.0000     -19.403983      -528.0092
   4   1.0000     -14.663007      -399.0007
   5   1.0000     -14.629079      -398.0775
   6   1.0000     -10.540298      -286.8161
   7   1.0000     -10.517402      -286.1930
   8   1.0000     -10.470509      -284.9170
   9   1.0000     -10.469239      -284.8825
  10   1.0000     -10.450945      -284.3847
  11   1.0000     -10.444729      -284.2155
  12   1.0000     -10.414318      -283.3880
  13   1.0000     -10.404832      -283.1299
  14   1.0000      -1.059860       -28.8403
  15   1.0000      -1.041083       -28.3293
  16   1.0000      -0.992027       -26.9944
  17   1.0000      -0.929318       -25.2880
  18   1.0000      -0.907179       -24.6856
  19   1.0000      -0.891622       -24.2623
  20   1.0000      -0.776980       -21.1427
  21   1.0000      -0.732624       -19.9357
  22   1.0000      -0.685546       -18.6547
  23   1.0000      -0.647298       -17.6139
  24   1.0000      -0.582006       -15.8372
  25   1.0000      -0.547567       -14.9000
  26   1.0000      -0.524811       -14.2808
  27   1.0000      -0.502883       -13.6842
  28   1.0000      -0.462821       -12.5940
  29   1.0000      -0.447973       -12.1900
  30   1.0000      -0.431474       -11.7410
  31   1.0000      -0.424365       -11.5476
  32   1.0000      -0.416600       -11.3363
  33   1.0000      -0.404169       -10.9980
  34   1.0000      -0.390780       -10.6337
  35   1.0000      -0.382419       -10.4062
  36   1.0000      -0.373376       -10.1601
  37   1.0000      -0.364139        -9.9087
  38   1.0000      -0.353896        -9.6300
  39   1.0000      -0.338063        -9.1992
  40   1.0000      -0.337260        -9.1773
  41   1.0000      -0.327523        -8.9124
  42   1.0000      -0.321667        -8.7530
  43   1.0000      -0.305520        -8.3136
  44   1.0000      -0.300795        -8.1850
  45   1.0000      -0.287667        -7.8278
  46   1.0000      -0.230797        -6.2803
  47   1.0000      -0.222026        -6.0416
  48   1.0000      -0.214610        -5.8398
  49   1.0000      -0.196442        -5.3455
  50   1.0000      -0.166863        -4.5406
  51   1.0000      -0.156576        -4.2607
  52   1.0000      -0.150464        -4.0943
  53   0.0000       0.100930         2.7464
  54   0.0000       0.155208         4.2234
  55   0.0000       0.161549         4.3960
  56   0.0000       0.179309         4.8792
  57   0.0000       0.192490         5.2379

MULLIKEN ATOMIC CHARGES AND SPIN POPULATIONS
--------------------------------------------
   0 N :   -0.358423   -0.014711
   1 C :    0.013332    0.109772
   2 C :    0.300853   -0.036093
   3 O :   -0.478902    0.001696
   4 C :   -0.324903   -0.098622
   5 C :   -0.313509    0.999694
   6 H :    0.135688   -0.037008
   7 C :    0.359765   -0.101042
   8 O :   -0.577242    0.029722
   9 O :   -0.486245    0.107657
  10 H :    0.249040   -0.000350
  11 C :    0.388545   -0.000870
  12 N :   -0.347700    0.006966
  13 H :    0.322970   -0.000189
  14 O :   -0.433276   -0.000091
  15 C :   -0.461341   -0.000080
  16 H :    0.146073   -0.000027
  17 H :    0.141597    0.000051
  18 H :    0.123019    0.000116
  19 C :   -0.311204   -0.002787
  20 H :    0.123064    0.000153
  21 H :    0.145797    0.000018
  22 H :    0.133341    0.001012
  23 H :    0.142599    0.004870
  24 H :    0.194045    0.003805
  25 H :    0.173015    0.026339
Sum of atomic charges         :   -1.0000000

LOEWDIN ATOMIC CHARGES AND SPIN POPULATIONS
-------------------------------------------
   0 N :    0.150243    0.000843
   1 C :   -0.234669    0.036512
   2 C :   -0.457559    0.004256
   3 O :   -0.003882    0.000309
   4 C :   -0.262206    0.060107
   5 C :   -0.096901    0.718760
   6 H :    0.123643   -0.001487
   7 C :   -0.682200    0.040921
   8 O :   -0.110668    0.024433
   9 O :   -0.044679    0.090564
  10 H :    0.192918    0.000460
  11 C :   -0.490398    0.000166
  12 N :    0.102979    0.002178
  13 H :    0.190177    0.000435
  14 O :    0.033383    0.000581
  15 C :   -0.273211    0.000016
  16 H :    0.132579    0.000003
  17 H :    0.130169    0.000017
  18 H :    0.118518    0.000014
  19 C :   -0.320782    0.000220
  20 H :    0.109318    0.000090
  21 H :    0.117832   -0.000014
  22 H :    0.111744    0.000161
  23 H :    0.160638    0.003291
  24 H :    0.152873    0.002023
  25 H :    0.150140    0.015140

  Mayer bond orders larger than 0.100000
B(  0-N ,  1-C ) :   0.8537 B(  0-N , 10-H ) :   0.8844 B(  0-N , 11-C ) :   1.2485
B(  1-C ,  2-C ) :   0.9621 B(  1-C ,  4-C ) :   0.9111 B(  1-C , 23-H ) :   0.9710
B(  2-C ,  3-O ) :   1.8652 B(  2-C , 12-N ) :   1.3371 B(  4-C ,  5-C ) :   0.8152
B(  4-C , 24-H ) :   0.9812 B(  4-C , 25-H ) :   0.9540 B(  5-C ,  6-H ) :   0.9694
B(  5-C ,  7-C ) :   1.0363 B(  7-C ,  8-O ) :   1.5470 B(  7-C ,  9-O ) :   1.8729
B(  8-O , 13-H ) :   0.2207 B( 11-C , 14-O ) :   1.9253 B( 11-C , 15-C ) :   0.9063
B( 12-N , 13-H ) :   0.7244 B( 12-N , 19-C ) :   0.9612 B( 15-C , 16-H ) :   0.9650
B( 15-C , 17-H ) :   0.9692 B( 15-C , 18-H ) :   0.9841 B( 19-C , 20-H ) :   0.9725
B( 19-C , 21-H ) :   0.9706 B( 19-C , 22-H ) :   0.9735

FINAL SINGLE POINT ENERGY      -722.548256330748

DIPOLE MOMENT
-------------
                                X             Y             Z
Electronic contribution:      2.71882       2.33133      -2.28321
Nuclear contribution   :     -5.03257      -4.62500       2.78262
                        -----------------------------------------
Total Dipole Moment    :     -2.31375      -2.29366       0.49941
                        -----------------------------------------
Magnitude (a.u.)       :      3.29602
Magnitude (Debye)      :      8.37781

VIBRATIONAL FREQUENCIES
-----------------------

Scaling factor for frequencies =  1.000000000  (already applied!)

   0:         0.00 cm**-1
   1:         0.00 cm**-1
   2:         0.00 cm**-1
   3:         0.00 cm**-1
   4:         0.00 cm**-1
   5:         0.00 cm**-1
   6:        38.36 cm**-1
   7:        66.86 cm**-1
   8:        77.87 cm**-1
   9:        94.38 cm**-1
  10:       104.71 cm**-1
  11:       135.88 cm**-1
  12:       150.82 cm**-1
  13:       161.22 cm**-1
  14:       179.27 cm**-1
  15:       196.96 cm**-1
  16:       207.44 cm**-1
  17:       251.51 cm**-1
  18:       273.45 cm**-1
  19:       306.30 cm**-1
  20:       353.00 cm**-1
  21:       392.01 cm**-1
  22:       434.78 cm**-1
  23:       492.26 cm**-1
  24:       518.60 cm**-1
  25:       555.17 cm**-1
  26:       577.22 cm**-1
  27:       622.26 cm**-1
  28:       659.62 cm**-1
  29:       664.15 cm**-1
  30:       692.35 cm**-1
  31:       770.92 cm**-1
  32:       808.14 cm**-1
  33:       852.89 cm**-1
  34:       901.95 cm**-1
  35:       936.64 cm**-1
  36:       995.81 cm**-1
  37:      1021.78 cm**-1
  38:      1034.11 cm**-1
  39:      1036.04 cm**-1
  40:      1065.78 cm**-1
  41:      1101.23 cm**-1
  42:      1143.92 cm**-1
  43:      1152.80 cm**-1
  44:      1163.67 cm**-1
  45:      1191.73 cm**-1
  46:      1232.70 cm**-1
  47:      1254.38 cm**-1
  48:      1302.14 cm**-1
  49:      1324.92 cm**-1
  50:      1343.56 cm**-1
  51:      1379.05 cm**-1
  52:      1399.08 cm**-1
  53:      1402.96 cm**-1
  54:      1419.08 cm**-1
  55:      1455.66 cm**-1
  56:      1478.35 cm**-1
  57:      1488.15 cm**-1
  58:      1489.10 cm**-1
  59:      1491.74 cm**-1
  60:      1507.50 cm**-1
  61:      1555.21 cm**-1
  62:      1657.46 cm**-1
  63:      1691.82 cm**-1
  64:      1732.10 cm**-1
  65:      1772.57 cm**-1
  66:      2579.84 cm**-1
  67:      3045.20 cm**-1
  68:      3059.45 cm**-1
  69:      3070.28 cm**-1
  70:      3084.68 cm**-1
  71:      3117.77 cm**-1
  72:      3125.82 cm**-1
  73:      3167.78 cm**-1
  74:      3172.74 cm**-1
  75:      3174.15 cm**-1
  76:      3206.44 cm**-1
  77:      3611.24 cm**-1

IR SPECTRUM
-----------

 Mode   freq       eps      Int      T**2         TX        TY        TZ
       cm**-1   L/(mol*cm) km/mol    a.u.
----------------------------------------------------------------------------
  6:     38.36   0.000444    2.24  0.003609  ( 0.059300  0.002110  0.009407)
  7:     66.86   0.000511    2.58  0.002387  (-0.029196 -0.001894  0.039132)
  8:     77.87   0.001121    5.67  0.004494  (-0.013776 -0.047577  0.045177)
  9:     94.38   0.000724    3.66  0.002395  (-0.005183 -0.048622  0.002019)
 10:    104.71   0.001380    6.98  0.004114  (-0.044536  0.042188  0.018716)
 11:    135.88   0.000534    2.70  0.001227  (-0.028204 -0.020762 -0.000911)
 12:    150.82   0.000036    0.18  0.000074  ( 0.006062  0.005368 -0.002842)
 13:    161.22   0.002615   13.21  0.005061  (-0.013371  0.036483 -0.059593)
 14:    179.27   0.003363   17.00  0.005855  (-0.015356  0.043571 -0.060994)
 15:    196.96   0.006175   31.21  0.009784  ( 0.022859  0.089037 -0.036524)
 16:    207.44   0.002226   11.25  0.003348  (-0.044804 -0.031575  0.018541)
 17:    251.51   0.006830   34.51  0.008474  (-0.046849 -0.075250  0.024827)
 18:    273.45   0.002114   10.68  0.002413  ( 0.032365 -0.006672  0.036343)
 19:    306.30   0.001507    7.62  0.001535  (-0.006880  0.036965 -0.011025)
 20:    353.00   0.003416   17.26  0.003019  (-0.007827  0.034621 -0.041948)
 21:    392.01   0.002799   14.15  0.002228  ( 0.042370 -0.004550  0.020310)
 22:    434.78   0.001610    8.14  0.001155  (-0.013261 -0.030991  0.004368)
 23:    492.26   0.001330    6.72  0.000843  ( 0.023855 -0.001677 -0.016468)
 24:    518.60   0.002570   12.99  0.001547  (-0.033179 -0.020877  0.003134)
 25:    555.17   0.009903   50.05  0.005566  (-0.016554  0.072479  0.006258)
 26:    577.22   0.007605   38.43  0.004112  (-0.023109 -0.054837 -0.023885)
 27:    622.26   0.001147    5.79  0.000575  (-0.004915  0.023429 -0.001393)
 28:    659.62   0.000129    0.65  0.000061  (-0.002850 -0.000992  0.007211)
 29:    664.15   0.002384   12.05  0.001120  ( 0.020902  0.020829 -0.015795)
 30:    692.35   0.001184    5.99  0.000534  ( 0.021350  0.008603  0.001991)
 31:    770.92   0.002636   13.32  0.001067  (-0.001271  0.004823 -0.032282)
 32:    808.14   0.005123   25.89  0.001978  ( 0.008684  0.028985 -0.032602)
 33:    852.89   0.015195   76.79  0.005560  (-0.033188 -0.066403 -0.006999)
 34:    901.95   0.005718   28.90  0.001978  ( 0.043872 -0.006922  0.002396)
 35:    936.64   0.000918    4.64  0.000306  ( 0.009952  0.013940  0.003519)
 36:    995.81   0.002735   13.82  0.000857  (-0.018093  0.016985 -0.015531)
 37:   1021.78   0.002501   12.64  0.000764  (-0.000048  0.027176  0.005015)
 38:   1034.11   0.007967   40.26  0.002404  ( 0.004102  0.048093 -0.008621)
 39:   1036.04   0.024436  123.49  0.007360  (-0.044438  0.069568 -0.023367)
 40:   1065.78   0.001551    7.84  0.000454  ( 0.002374  0.020800 -0.003977)
 41:   1101.23   0.000288    1.46  0.000082  ( 0.005333  0.007091 -0.001728)
 42:   1143.92   0.000646    3.27  0.000176  ( 0.002548  0.010791 -0.007309)
 43:   1152.80   0.000964    4.87  0.000261  (-0.012828 -0.007988  0.005710)
 44:   1163.67   0.000784    3.96  0.000210  ( 0.013722 -0.001545  0.004413)
 45:   1191.73   0.002367   11.96  0.000620  ( 0.020010  0.010889 -0.010037)
 46:   1232.70   0.003291   16.63  0.000833  ( 0.024202  0.015405 -0.003190)
 47:   1254.38   0.000866    4.37  0.000215  ( 0.011001 -0.000180  0.009709)
 48:   1302.14   0.003383   17.10  0.000811  (-0.026449 -0.010423 -0.001621)
 49:   1324.92   0.021328  107.78  0.005023  ( 0.061055  0.021923  0.028549)
 50:   1343.56   0.002454   12.40  0.000570  (-0.002499 -0.004495 -0.023316)
 51:   1379.05   0.017984   90.89  0.004070  ( 0.051191 -0.017724  0.033689)
 52:   1399.08   0.005253   26.55  0.001172  (-0.033340  0.006452  0.004310)
 53:   1402.96   0.012827   64.82  0.002853  ( 0.037035 -0.009393  0.037328)
 54:   1419.08   0.012060   60.95  0.002652  ( 0.038569  0.010144  0.032582)
 55:   1455.66   0.003669   18.54  0.000786  (-0.001304  0.008379 -0.026731)
 56:   1478.35   0.001023    5.17  0.000216  ( 0.001013 -0.013979  0.004415)
 57:   1488.15   0.013360   67.52  0.002802  (-0.019739 -0.010776 -0.047915)
 58:   1489.10   0.002429   12.28  0.000509  ( 0.013961 -0.015012 -0.009427)
 59:   1491.74   0.000879    4.44  0.000184  (-0.002144 -0.005878  0.012034)
 60:   1507.50   0.000776    3.92  0.000161  ( 0.003178  0.012125 -0.001867)
 61:   1555.21   0.096860  489.49  0.019436  ( 0.125211  0.036853  0.048987)
 62:   1657.46   0.096062  485.46  0.018086  (-0.055145 -0.122588  0.004219)
 63:   1691.82   0.084660  427.84  0.015616  (-0.044706  0.104743 -0.051442)
 64:   1732.10   0.058080  293.51  0.010464  ( 0.088439  0.019108 -0.047721)
 65:   1772.57   0.059971  303.07  0.010558  ( 0.010760  0.041734  0.093276)
 66:   2579.84   0.319228  1613.25  0.038615  ( 0.071348  0.147390 -0.108629)
 67:   3045.20   0.003921   19.81  0.000402  ( 0.009542 -0.015688  0.008039)
 68:   3059.45   0.009216   46.57  0.000940  ( 0.014287  0.003967  0.026836)
 69:   3070.28   0.002244   11.34  0.000228  (-0.002164  0.009377  0.011639)
 70:   3084.68   0.001513    7.64  0.000153  ( 0.011845 -0.000337 -0.003549)
 71:   3117.77   0.005527   27.93  0.000553  (-0.012397  0.019986 -0.000188)
 72:   3125.82   0.000938    4.74  0.000094  (-0.004541  0.008306 -0.002010)
 73:   3167.78   0.000878    4.44  0.000087  (-0.001259 -0.008465  0.003643)
 74:   3172.74   0.001738    8.78  0.000171  ( 0.010942  0.006590 -0.002791)
 75:   3174.15   0.002426   12.26  0.000239  ( 0.000388  0.006175  0.014152)
 76:   3206.44   0.002843   14.37  0.000277  (-0.013663  0.009204 -0.002300)
 77:   3611.24   0.019765   99.88  0.001708  (-0.009138 -0.003603 -0.040143)

--------------------------
THERMOCHEMISTRY AT 298.15K
--------------------------

Temperature         ... 298.15 K
Pressure            ... 1.00 atm
Total Mass          ... 200.19 AMU

Throughout the following assumptions are being made:
  (1) The electronic state is orbitally nondegenerate
      but the spin degeneracy is treated
  (2) There are no thermally accessible electronically excited states
  (3) Hindered rotations indicated by low frequency modes are not
      treated as such but are treated as vibrations and this may
      cause some error
  (4) All equations used are the standard statistical mechanics
      equations for an ideal gas
  (5) All vibrations are strictly harmonic

freq.      38.36  E(vib)   ...       0.54
freq.      66.86  E(vib)   ...       0.50
freq.      77.87  E(vib)   ...       0.49
freq.      94.38  E(vib)   ...       0.47
freq.     104.71  E(vib)   ...       0.46
freq.     135.88  E(vib)   ...       0.42
freq.     150.82  E(vib)   ...       0.40
freq.     161.22  E(vib)   ...       0.39
freq.     179.27  E(vib)   ...       0.37
freq.     196.96  E(vib)   ...       0.35
freq.     207.44  E(vib)   ...       0.34
freq.     251.51  E(vib)   ...       0.30
freq.     273.45  E(vib)   ...       0.29
freq.     306.30  E(vib)   ...       0.26
freq.     353.00  E(vib)   ...       0.22
freq.     392.01  E(vib)   ...       0.20
freq.     434.78  E(vib)   ...       0.17
freq.     492.26  E(vib)   ...       0.14
freq.     518.60  E(vib)   ...       0.13
freq.     555.17  E(vib)   ...       0.12
freq.     577.22  E(vib)   ...       0.11
freq.     622.26  E(vib)   ...       0.09
freq.     659.62  E(vib)   ...       0.08
freq.     664.15  E(vib)   ...       0.08
freq.     692.35  E(vib)   ...       0.07
freq.     770.92  E(vib)   ...       0.05
freq.     808.14  E(vib)   ...       0.05
freq.     852.89  E(vib)   ...       0.04
freq.     901.95  E(vib)   ...       0.03
freq.     936.64  E(vib)   ...       0.03
freq.     995.81  E(vib)   ...       0.02
freq.    1021.78  E(vib)   ...       0.02
freq.    1034.11  E(vib)   ...       0.02
freq.    1036.04  E(vib)   ...       0.02
freq.    1065.78  E(vib)   ...       0.02
freq.    1101.23  E(vib)   ...       0.02
freq.    1143.92  E(vib)   ...       0.01
freq.    1152.80  E(vib)   ...       0.01
freq.    1163.67  E(vib)   ...       0.01
freq.    1191.73  E(vib)   ...       0.01
freq.    1232.70  E(vib)   ...       0.01
freq.    1254.38  E(vib)   ...       0.01
freq.    1302.14  E(vib)   ...       0.01
freq.    1324.92  E(vib)   ...       0.01
freq.    1343.56  E(vib)   ...       0.01
freq.    1379.05  E(vib)   ...       0.01
freq.    1399.08  E(vib)   ...       0.00
freq.    1402.96  E(vib)   ...       0.00
freq.    1419.08  E(vib)   ...       0.00
freq.    1455.66  E(vib)   ...       0.00
freq.    1478.35  E(vib)   ...       0.00
freq.    1488.15  E(vib)   ...       0.00
freq.    1489.10  E(vib)   ...       0.00
freq.    1491.74  E(vib)   ...       0.00
freq.    1507.50  E(vib)   ...       0.00
freq.    1555.21  E(vib)   ...       0.00
freq.    1657.46  E(vib)   ...       0.00
freq.    1691.82  E(vib)   ...       0.00
freq.    1732.10  E(vib)   ...       0.00
freq.    1772.57  E(vib)   ...       0.00
freq.    2579.84  E(vib)   ...       0.00
freq.    3045.20  E(vib)   ...       0.00
freq.    3059.45  E(vib)   ...       0.00
freq.    3070.28  E(vib)   ...       0.00
freq.    3084.68  E(vib)   ...       0.00
freq.    3117.77  E(vib)   ...       0.00
freq.    3125.82  E(vib)   ...       0.00
freq.    3167.78  E(vib)   ...       0.00
freq.    3172.74  E(vib)   ...       0.00
freq.    3174.15  E(vib)   ...       0.00
freq.    3206.44  E(vib)   ...       0.00
freq.    3611.24  E(vib)   ...       0.00

------------
INNER ENERGY
------------

The inner energy is: U= E(el) + E(ZPE) + E(vib) + E(rot) + E(trans)
    E(el)   - is the total energy from the electronic structure calculation
              = E(kin-el) + E(nuc-el) + E(el-el) + E(nuc-nuc)
    E(ZPE)  - the the zero temperature vibrational energy from the frequency calculation
    E(vib)  - the the finite temperature correction to E(ZPE) due to population
              of excited vibrational states
    E(rot)  - is the rotational thermal energy
    E(trans)- is the translational thermal energy

Summary of contributions to the inner energy U:
Electronic energy                ...   -722.54825633 Eh
Zero point energy                ...      0.20543782 Eh     128.91 kcal/mol
Thermal vibrational correction   ...      0.01190415 Eh       7.47 kcal/mol
Thermal rotational correction    ...      0.00141627 Eh       0.89 kcal/mol
Thermal translational correction ...      0.00141627 Eh       0.89 kcal/mol
-----------------------------------------------------------------------
Total thermal energy                   -722.32808182 Eh

Summary of corrections to the electronic energy:
(perhaps to be used in another calculation)
Total thermal correction                  0.01473669 Eh       9.25 kcal/mol
Non-thermal (ZPE) correction              0.20543782 Eh     128.91 kcal/mol
-----------------------------------------------------------------------
Total correction                          0.22017452 Eh     138.16 kcal/mol

--------
ENTHALPY
--------

The enthalpy is H = U + kB*T
                kB is Boltzmann's constant
Total free energy                 ...   -722.32808182 Eh
Thermal Enthalpy correction       ...      0.00094421 Eh       0.59 kcal/mol
-----------------------------------------------------------------------
Total Enthalpy                    ...   -722.32713761 Eh

Note: Only C1 symmetry has been detected, increase convergence thresholds
      if your molecule has a higher symmetry. Symmetry factor of 1.0 is
      used for the rotational entropy correction.

Note: Rotational entropy computed according to Herzberg
Infrared and Raman Spectra, Chapter V,1, Van Nostrand Reinhold, 1945
Point Group:  C1, Symmetry Number:   1
Rotational constants in cm-1:     0.031265     0.014961     0.011462

Vibrational entropy computed according to the QRRHO of S. Grimme
Chem.Eur.J. 2012 18 9955

-------
ENTROPY
-------

The entropy contributions are T*S = T*(S(el)+S(vib)+S(rot)+S(trans))
     S(el)   - electronic entropy
     S(vib)  - vibrational entropy
     S(rot)  - rotational entropy
     S(trans)- translational entropy
The entropies will be listed as multiplied by the temperature to get
units of energy

Electronic entropy                ...      0.00065446 Eh      0.41 kcal/mol

                             ****ORCA TERMINATED NORMALLY****
TOTAL RUN TIME: 0 days 0 hours 25 minutes 6 seconds 91 msec
