                         Program Version 5.0.4 -  RELEASE  -
|  1> ! B3LYP EPR-II OPT
|  2> %pal nprocs 16 end
|  3> *XYZFile -1 2 model.xyz
|  4>
|  5>                          ****END OF INPUT****
 Total Charge           Charge          ....   -1
 Multiplicity           Mult            ....    2
 Number of Electrons    NEL             ....  107
FINAL SINGLE POINT ENERGY      -722.310285524174
FINAL SINGLE POINT ENERGY      -722.307772903556
FINAL SINGLE POINT ENERGY      -722.301349161597
FINAL SINGLE POINT ENERGY      -722.311010727692
FINAL SINGLE POINT ENERGY      -722.307490976229
FINAL SINGLE POINT ENERGY      -722.312526063587
FINAL SINGLE POINT ENERGY      -722.311652930357
FINAL SINGLE POINT ENERGY      -722.312620197305
FINAL SINGLE POINT ENERGY      -722.312642020319
FINAL SINGLE POINT ENERGY      -722.312657528149
FINAL SINGLE POINT ENERGY      -722.312661144202
FINAL SINGLE POINT ENERGY      -722.312663171691
                    ***********************HURRAY********************

CARTESIAN COORDINATES (ANGSTROEM)
---------------------------------
  N     -3.814430   -0.002270   -0.039979
  C     -2.362869   -0.164275   -0.136599
  C     -1.843699   -0.189760    1.326102
  O     -2.602168   -0.610090    2.223502
  C     -1.692814    0.861280   -1.096585
  C     -1.673451    2.292821   -0.641845
  H     -2.572692    2.900473   -0.725078
  C     -0.414783    2.960127   -0.174253
  O      0.543379    2.170901    0.179821
  O     -0.395470    4.215979   -0.188372
  H     -4.140225    0.018946    0.920119
  C     -4.676665   -0.424613   -1.004136
  N     -0.567663    0.186820    1.527261
  H     -0.102318    0.887106    0.869137
  O     -4.325540   -0.824936   -2.118324
  C     -6.160563   -0.341510   -0.633204
  H     -6.652526    0.340283   -1.333060
  H     -6.606888   -1.331669   -0.762451
  H     -6.335132    0.007397    0.388383
  C     -0.043580    0.193475    2.888544
  H     -0.015596   -0.819814    3.303282
  H      0.968061    0.602850    2.855564
  H     -0.657713    0.809925    3.556259
  H     -2.159528   -1.164825   -0.548084
  H     -0.660182    0.533948   -1.254649
  H     -2.226229    0.759224   -2.050107

 Multiplicity           Mult            ....    2
 Number of Electrons    NEL             ....  107
 Basis Dimension        Dim             ....  322

ORBITAL ENERGIES
----------------
                 SPIN UP ORBITALS
  NO   OCC          E(Eh)            E(eV)
   0   1.0000     -19.004496      -517.1386
   1   1.0000     -18.992354      -516.8082
   2   1.0000     -18.929052      -515.0857
   3   1.0000     -18.927919      -515.0548
   4   1.0000     -14.244960      -387.6251
   5   1.0000     -14.214856      -386.8059
   6   1.0000     -10.190720      -277.3036
   7   1.0000     -10.169491      -276.7259
   8   1.0000     -10.122011      -275.4339
   9   1.0000     -10.121455      -275.4188
  10   1.0000     -10.099993      -274.8348
  11   1.0000     -10.093601      -274.6609
  12   1.0000     -10.064456      -273.8678
  13   1.0000     -10.059898      -273.7437
  14   1.0000      -0.924974       -25.1698
  15   1.0000      -0.908166       -24.7124
  16   1.0000      -0.859620       -23.3914
  17   1.0000      -0.810923       -22.0663
  18   1.0000      -0.787783       -21.4367
  19   1.0000      -0.771402       -20.9909
  20   1.0000      -0.672575       -18.3017
  21   1.0000      -0.634297       -17.2601
  22   1.0000      -0.593682       -16.1549
  23   1.0000      -0.559647       -15.2288
  24   1.0000      -0.500293       -13.6137
  25   1.0000      -0.461250       -12.5513
  26   1.0000      -0.437786       -11.9128
  27   1.0000      -0.416177       -11.3248
  28   1.0000      -0.377705       -10.2779
  29   1.0000      -0.366886        -9.9835
  30   1.0000      -0.351656        -9.5690
  31   1.0000      -0.345196        -9.3933
  32   1.0000      -0.334876        -9.1124
  33   1.0000      -0.325421        -8.8551
  34   1.0000      -0.316355        -8.6085
  35   1.0000      -0.305045        -8.3007
  36   1.0000      -0.296873        -8.0783
  37   1.0000      -0.290038        -7.8923
  38   1.0000      -0.283522        -7.7150
  39   1.0000      -0.269212        -7.3256
  40   1.0000      -0.261430        -7.1139
  41   1.0000      -0.251592        -6.8462
  42   1.0000      -0.242709        -6.6045
  43   1.0000      -0.233024        -6.3409
  44   1.0000      -0.228771        -6.2252
  45   1.0000      -0.218481        -5.9452
  46   1.0000      -0.156459        -4.2575
  47   1.0000      -0.149018        -4.0550
  48   1.0000      -0.142783        -3.8853
  49   1.0000      -0.129772        -3.5313
  50   1.0000      -0.098386        -2.6772
  51   1.0000      -0.092897        -2.5279
  52   1.0000      -0.079347        -2.1591
  53   1.0000      -0.063518        -1.7284
  54   0.0000       0.102574         2.7912
  55   0.0000       0.119453         3.2505
  56   0.0000       0.128880         3.5070
  57   0.0000       0.136800         3.7225
  58   0.0000       0.153974         4.1898

                 SPIN DOWN ORBITALS
  NO   OCC          E(Eh)            E(eV)
   0   1.0000     -19.004461      -517.1377
   1   1.0000     -18.992336      -516.8077
   2   1.0000     -18.928134      -515.0607
   3   1.0000     -18.924536      -514.9628
   4   1.0000     -14.245009      -387.6264
   5   1.0000     -14.214829      -386.8052
   6   1.0000     -10.190720      -277.3036
   7   1.0000     -10.169527      -276.7269
   8   1.0000     -10.122646      -275.4512
   9   1.0000     -10.120678      -275.3976
  10   1.0000     -10.099994      -274.8348
  11   1.0000     -10.093604      -274.6609
  12   1.0000     -10.065278      -273.8901
  13   1.0000     -10.047333      -273.4018
  14   1.0000      -0.924906       -25.1680
  15   1.0000      -0.908099       -24.7106
  16   1.0000      -0.855854       -23.2890
  17   1.0000      -0.810656       -22.0591
  18   1.0000      -0.786598       -21.4044
  19   1.0000      -0.767699       -20.8902
  20   1.0000      -0.668932       -18.2026
  21   1.0000      -0.630556       -17.1583
  22   1.0000      -0.587732       -15.9930
  23   1.0000      -0.553000       -15.0479
  24   1.0000      -0.490424       -13.3451
  25   1.0000      -0.458689       -12.4816
  26   1.0000      -0.436162       -11.8686
  27   1.0000      -0.415782       -11.3140
  28   1.0000      -0.376047       -10.2328
  29   1.0000      -0.366306        -9.9677
  30   1.0000      -0.348235        -9.4760
  31   1.0000      -0.342943        -9.3320
  32   1.0000      -0.332886        -9.0583
  33   1.0000      -0.324741        -8.8366
  34   1.0000      -0.314635        -8.5617
  35   1.0000      -0.304572        -8.2878
  36   1.0000      -0.293813        -7.9951
  37   1.0000      -0.288098        -7.8396
  38   1.0000      -0.279704        -7.6111
  39   1.0000      -0.267893        -7.2897
  40   1.0000      -0.259711        -7.0671
  41   1.0000      -0.247172        -6.7259
  42   1.0000      -0.240750        -6.5511
  43   1.0000      -0.230395        -6.2694
  44   1.0000      -0.222143        -6.0448
  45   1.0000      -0.214388        -5.8338
  46   1.0000      -0.154791        -4.2121
  47   1.0000      -0.148751        -4.0477
  48   1.0000      -0.141939        -3.8624
  49   1.0000      -0.129321        -3.5190
  50   1.0000      -0.088767        -2.4155
  51   1.0000      -0.084786        -2.3071
  52   1.0000      -0.070439        -1.9167
  53   0.0000       0.060631         1.6498
  54   0.0000       0.102862         2.7990
  55   0.0000       0.120004         3.2655
  56   0.0000       0.129129         3.5138
  57   0.0000       0.137157         3.7322

MULLIKEN ATOMIC CHARGES AND SPIN POPULATIONS
--------------------------------------------
   0 N :   -0.095918   -0.002018
   1 C :   -0.049364    0.048186
   2 C :    0.027246    0.006201
   3 O :   -0.405219   -0.000889
   4 C :   -0.341754   -0.050619
   5 C :   -0.141378    0.932068
   6 H :    0.122380   -0.043377
   7 C :    0.102280   -0.074092
   8 O :   -0.449961    0.035103
   9 O :   -0.424708    0.122861
  10 H :    0.237423    0.000401
  11 C :    0.178205   -0.001055
  12 N :   -0.061182   -0.002322
  13 H :    0.257722   -0.001678
  14 O :   -0.347861    0.001081
  15 C :   -0.574632    0.000063
  16 H :    0.175781    0.000019
  17 H :    0.172080    0.000030
  18 H :    0.148255    0.000016
  19 C :   -0.470738   -0.000504
  20 H :    0.151124    0.000082
  21 H :    0.156812   -0.000000
  22 H :    0.161330    0.000279
  23 H :    0.157792    0.004713
  24 H :    0.166672    0.004535
  25 H :    0.147614    0.020916
Sum of atomic charges         :   -1.0000000

LOEWDIN ATOMIC CHARGES AND SPIN POPULATIONS
-------------------------------------------
   0 N :    0.066285    0.000083
   1 C :   -0.039648    0.047403
   2 C :   -0.106209    0.002705
   3 O :   -0.249889    0.000539
   4 C :   -0.076099    0.012083
   5 C :   -0.021603    0.761598
   6 H :    0.036876    0.006000
   7 C :   -0.214746   -0.012884
   8 O :   -0.324265    0.034730
   9 O :   -0.275392    0.120795
  10 H :    0.088651    0.000767
  11 C :   -0.111954    0.000449
  12 N :    0.032381    0.001421
  13 H :    0.080785    0.000129
  14 O :   -0.214687    0.001060
  15 C :   -0.056180    0.000039
  16 H :    0.048245    0.000048
  17 H :    0.046460   -0.000002
  18 H :    0.031361    0.000011
  19 C :   -0.014418   -0.000002
  20 H :    0.027510    0.000117
  21 H :    0.034300   -0.000004
  22 H :    0.032080    0.000073
  23 H :    0.066812    0.003095
  24 H :    0.057081    0.002987
  25 H :    0.056262    0.016762

  Mayer bond orders larger than 0.100000
B(  0-N ,  1-C ) :   1.0066 B(  0-N , 10-H ) :   0.8959 B(  0-N , 11-C ) :   1.2329
B(  1-C ,  2-C ) :   0.9131 B(  1-C ,  4-C ) :   0.9314 B(  1-C , 14-O ) :   0.1085
B(  1-C , 23-H ) :   0.9773 B(  2-C ,  3-O ) :   1.7241 B(  2-C , 12-N ) :   1.2884
B(  4-C ,  5-C ) :   0.9832 B(  4-C , 24-H ) :   0.9590 B(  4-C , 25-H ) :   0.9716
B(  5-C ,  6-H ) :   1.0015 B(  5-C ,  7-C ) :   1.0397 B(  5-C ,  9-O ) :   0.1367
B(  7-C ,  8-O ) :   1.4090 B(  7-C ,  9-O ) :   1.6365 B(  8-O , 13-H ) :   0.2296
B( 11-C , 14-O ) :   1.8210 B( 11-C , 15-C ) :   0.8789 B( 12-N , 13-H ) :   0.7451
B( 12-N , 19-C ) :   0.9587 B( 15-C , 16-H ) :   0.9663 B( 15-C , 17-H ) :   0.9677
B( 15-C , 18-H ) :   0.9773 B( 19-C , 20-H ) :   0.9655 B( 19-C , 21-H ) :   0.9692
B( 19-C , 22-H ) :   0.9555

FINAL SINGLE POINT ENERGY      -722.312665280874

DIPOLE MOMENT
-------------
                                X             Y             Z
Electronic contribution:      2.85115       2.64844      -2.35525
Nuclear contribution   :     -5.14613      -4.95824       2.98336
                        -----------------------------------------
Total Dipole Moment    :     -2.29498      -2.30980       0.62811
                        -----------------------------------------
Magnitude (a.u.)       :      3.31611
Magnitude (Debye)      :      8.42889

Rotational constants in cm-1:     0.030718     0.014511     0.011094
Rotational constants in MHz :   920.902604   435.027717   332.583342

                             ****ORCA TERMINATED NORMALLY****
TOTAL RUN TIME: 0 days 0 hours 7 minutes 25 seconds 251 msec
