                         Program Version 5.0.4 -  RELEASE  -
|  1> ! B3LYP EPR-II AUTOAUX
|  2> %pal nprocs 16 end
|  3> *XYZFile 0 2 opt.xyz
|  4> %EPRNMR
|  5>         GTENSOR   TRUE
|  6>         NUCLEI    = 9,10,29,30,31,32 {SHIFT, AISO, ADIP, AORB}
|  7>         ORI       GIAO
|  8> END
|  9>
| 10>                          ****END OF INPUT****

CARTESIAN COORDINATES (ANGSTROEM)
---------------------------------
  N     -1.827890    0.776024    0.766471
  C     -1.496899   -0.115084   -0.333278
  C     -1.652820   -1.557598    0.191222
  O     -1.709629   -1.805575    1.397669
  C     -0.075628    0.139380   -0.907612
  C      1.071583   -0.089654    0.090268
  C      2.449358    0.221369   -0.518550
  C      3.599308    0.020111    0.477407
  N      4.893634    0.296176   -0.116193
  H      5.589756    0.145818    0.626660
  H     -1.871123    0.339864    1.678635
  C     -2.285822    2.047819    0.560314
  N     -1.690152   -2.518894   -0.776133
  H     -1.683113   -2.222224   -1.740232
  O     -2.368652    2.545447   -0.563596
  C     -2.676603    2.822661    1.815513
  H     -2.053636    3.719244    1.877514
  H     -3.714989    3.148647    1.711900
  H     -2.568247    2.244309    2.736944
  C     -1.801962   -3.943815   -0.483405
  H     -2.758447   -4.345434   -0.835073
  H     -0.985558   -4.501670   -0.953294
  H     -1.744112   -4.066310    0.598188
  H     -2.217217    0.058967   -1.142223
  H      0.068074   -0.500843   -1.788032
  H     -0.060820    1.173962   -1.266167
  H      1.056434   -1.128572    0.446590
  H      0.909670    0.542230    0.972489
  H      2.630184   -0.418634   -1.391377
  H      2.476496    1.256777   -0.879700
  H      3.585626   -1.014296    0.870555
  H      3.450151    0.662766    1.365446

 Total Charge           Charge          ....    0
 Multiplicity           Mult            ....    2
 Number of Electrons    NEL             ....  109
 Basis Dimension        Dim             ....  364

ORBITAL ENERGIES
----------------
                 SPIN UP ORBITALS
  NO   OCC          E(Eh)            E(eV)
   0   1.0000     -19.124159      -520.3948
   1   1.0000     -19.100657      -519.7553
   2   1.0000     -14.374488      -391.1497
   3   1.0000     -14.350906      -390.5080
   4   1.0000     -14.346772      -390.3955
   5   1.0000     -10.305607      -280.4298
   6   1.0000     -10.289172      -279.9826
   7   1.0000     -10.240560      -278.6598
   8   1.0000     -10.227208      -278.2965
   9   1.0000     -10.216201      -277.9970
  10   1.0000     -10.192287      -277.3462
  11   1.0000     -10.186814      -277.1973
  12   1.0000     -10.185035      -277.1489
  13   1.0000     -10.181283      -277.0468
  14   1.0000      -1.047111       -28.4933
  15   1.0000      -1.022959       -27.8361
  16   1.0000      -0.933694       -25.4071
  17   1.0000      -0.917713       -24.9722
  18   1.0000      -0.883609       -24.0442
  19   1.0000      -0.801036       -21.7973
  20   1.0000      -0.761280       -20.7155
  21   1.0000      -0.728787       -19.8313
  22   1.0000      -0.712611       -19.3911
  23   1.0000      -0.667949       -18.1758
  24   1.0000      -0.616235       -16.7686
  25   1.0000      -0.599579       -16.3154
  26   1.0000      -0.585853       -15.9419
  27   1.0000      -0.565451       -15.3867
  28   1.0000      -0.539103       -14.6697
  29   1.0000      -0.485818       -13.2198
  30   1.0000      -0.482275       -13.1234
  31   1.0000      -0.474439       -12.9101
  32   1.0000      -0.467034       -12.7086
  33   1.0000      -0.464006       -12.6263
  34   1.0000      -0.457698       -12.4546
  35   1.0000      -0.447367       -12.1735
  36   1.0000      -0.436684       -11.8828
  37   1.0000      -0.427341       -11.6286
  38   1.0000      -0.415877       -11.3166
  39   1.0000      -0.403565       -10.9816
  40   1.0000      -0.398783       -10.8514
  41   1.0000      -0.393123       -10.6974
  42   1.0000      -0.381768       -10.3884
  43   1.0000      -0.377549       -10.2736
  44   1.0000      -0.367775       -10.0077
  45   1.0000      -0.356893        -9.7115
  46   1.0000      -0.341968        -9.3054
  47   1.0000      -0.332066        -9.0360
  48   1.0000      -0.329050        -8.9539
  49   1.0000      -0.287615        -7.8264
  50   1.0000      -0.272392        -7.4122
  51   1.0000      -0.271660        -7.3922
  52   1.0000      -0.266401        -7.2491
  53   1.0000      -0.250278        -6.8104
  54   1.0000      -0.246878        -6.7179
  55   0.0000       0.004246         0.1155
  56   0.0000       0.008541         0.2324
  57   0.0000       0.020121         0.5475
  58   0.0000       0.025498         0.6938
  59   0.0000       0.028556         0.7771

                 SPIN DOWN ORBITALS
  NO   OCC          E(Eh)            E(eV)
   0   1.0000     -19.124159      -520.3948
   1   1.0000     -19.100656      -519.7553
   2   1.0000     -14.374488      -391.1497
   3   1.0000     -14.350906      -390.5080
   4   1.0000     -14.328183      -389.8897
   5   1.0000     -10.305607      -280.4298
   6   1.0000     -10.289172      -279.9826
   7   1.0000     -10.240561      -278.6598
   8   1.0000     -10.227208      -278.2965
   9   1.0000     -10.216962      -278.0177
  10   1.0000     -10.192293      -277.3464
  11   1.0000     -10.186814      -277.1973
  12   1.0000     -10.185044      -277.1491
  13   1.0000     -10.181312      -277.0476
  14   1.0000      -1.047111       -28.4933
  15   1.0000      -1.022959       -27.8361
  16   1.0000      -0.933694       -25.4071
  17   1.0000      -0.917711       -24.9722
  18   1.0000      -0.851145       -23.1608
  19   1.0000      -0.798785       -21.7360
  20   1.0000      -0.757852       -20.6222
  21   1.0000      -0.728697       -19.8289
  22   1.0000      -0.709096       -19.2955
  23   1.0000      -0.663871       -18.0648
  24   1.0000      -0.612642       -16.6708
  25   1.0000      -0.599577       -16.3153
  26   1.0000      -0.580622       -15.7995
  27   1.0000      -0.565360       -15.3842
  28   1.0000      -0.539094       -14.6695
  29   1.0000      -0.484856       -13.1936
  30   1.0000      -0.477832       -13.0025
  31   1.0000      -0.473388       -12.8815
  32   1.0000      -0.465648       -12.6709
  33   1.0000      -0.458850       -12.4859
  34   1.0000      -0.455078       -12.3833
  35   1.0000      -0.445824       -12.1315
  36   1.0000      -0.430695       -11.7198
  37   1.0000      -0.425384       -11.5753
  38   1.0000      -0.414110       -11.2685
  39   1.0000      -0.403524       -10.9804
  40   1.0000      -0.397329       -10.8119
  41   1.0000      -0.392148       -10.6709
  42   1.0000      -0.380217       -10.3462
  43   1.0000      -0.376709       -10.2508
  44   1.0000      -0.362632        -9.8677
  45   1.0000      -0.355471        -9.6729
  46   1.0000      -0.341262        -9.2862
  47   1.0000      -0.330339        -8.9890
  48   1.0000      -0.327386        -8.9086
  49   1.0000      -0.272396        -7.4123
  50   1.0000      -0.271667        -7.3924
  51   1.0000      -0.267663        -7.2835
  52   1.0000      -0.250179        -6.8077
  53   1.0000      -0.246880        -6.7179
  54   0.0000      -0.088178        -2.3994
  55   0.0000       0.004252         0.1157
  56   0.0000       0.008616         0.2345
  57   0.0000       0.020676         0.5626
  58   0.0000       0.025742         0.7005

MULLIKEN ATOMIC CHARGES AND SPIN POPULATIONS
--------------------------------------------
   0 N :   -0.118804    0.000008
   1 C :   -0.128913   -0.000066
   2 C :    0.088772   -0.000008
   3 O :   -0.333737    0.000014
   4 C :   -0.274788    0.000034
   5 C :   -0.253611   -0.004258
   6 C :   -0.271222    0.000634
   7 C :   -0.296983   -0.057346
   8 N :   -0.300794    0.966532
   9 H :    0.194892   -0.032348
  10 H :    0.252424    0.000000
  11 C :    0.169469   -0.000002
  12 N :   -0.093929    0.000006
  13 H :    0.231858    0.000001
  14 O :   -0.324599    0.000007
  15 C :   -0.554572    0.000000
  16 H :    0.185616   -0.000000
  17 H :    0.186765   -0.000000
  18 H :    0.148713   -0.000000
  19 C :   -0.458729    0.000001
  20 H :    0.165550   -0.000000
  21 H :    0.160955   -0.000000
  22 H :    0.200079   -0.000000
  23 H :    0.164804   -0.000032
  24 H :    0.131194    0.000063
  25 H :    0.180078    0.000072
  26 H :    0.144967    0.000352
  27 H :    0.152531    0.000349
  28 H :    0.156534    0.001529
  29 H :    0.162881    0.001532
  30 H :    0.165665    0.062587
  31 H :    0.166933    0.060339
Sum of atomic charges         :   -0.0000000

LOEWDIN ATOMIC CHARGES AND SPIN POPULATIONS
-------------------------------------------
   0 N :    0.063481    0.000008
   1 C :   -0.048598   -0.000054
   2 C :   -0.093553    0.000003
   3 O :   -0.195994    0.000006
   4 C :   -0.057135   -0.000136
   5 C :   -0.075201   -0.000292
   6 C :   -0.086440   -0.001449
   7 C :   -0.094889    0.007358
   8 N :   -0.060319    0.898012
   9 H :    0.043834    0.007515
  10 H :    0.090199    0.000000
  11 C :   -0.104820   -0.000001
  12 N :    0.041628    0.000000
  13 H :    0.079910    0.000002
  14 O :   -0.197554    0.000008
  15 C :   -0.043075   -0.000000
  16 H :    0.054100   -0.000000
  17 H :    0.054522   -0.000000
  18 H :    0.033468    0.000000
  19 C :    0.011235   -0.000000
  20 H :    0.032099   -0.000000
  21 H :    0.031600   -0.000000
  22 H :    0.054911    0.000000
  23 H :    0.066974   -0.000015
  24 H :    0.043012    0.000054
  25 H :    0.059184    0.000060
  26 H :    0.047378    0.000301
  27 H :    0.048163    0.000271
  28 H :    0.047279    0.000057
  29 H :    0.049413    0.000042
  30 H :    0.052824    0.044916
  31 H :    0.052366    0.043334

  Mayer bond orders larger than 0.100000
B(  0-N ,  1-C ) :   1.0190 B(  0-N , 10-H ) :   0.8935 B(  0-N , 11-C ) :   1.2064
B(  1-C ,  2-C ) :   0.8996 B(  1-C ,  4-C ) :   0.9288 B(  1-C , 14-O ) :   0.1444
B(  1-C , 23-H ) :   0.9717 B(  2-C ,  3-O ) :   1.8681 B(  2-C , 12-N ) :   1.1861
B(  4-C ,  5-C ) :   0.9670 B(  4-C , 24-H ) :   0.9759 B(  4-C , 25-H ) :   0.9632
B(  5-C ,  6-C ) :   0.9641 B(  5-C , 26-H ) :   0.9628 B(  5-C , 27-H ) :   0.9711
B(  6-C ,  7-C ) :   0.9416 B(  6-C , 28-H ) :   0.9750 B(  6-C , 29-H ) :   0.9724
B(  7-C ,  8-N ) :   1.0105 B(  7-C , 30-H ) :   0.9287 B(  7-C , 31-H ) :   0.9283
B(  8-N ,  9-H ) :   0.9202 B( 11-C , 14-O ) :   1.8614 B( 11-C , 15-C ) :   0.8942
B( 12-N , 13-H ) :   0.9298 B( 12-N , 19-C ) :   0.9699 B( 15-C , 16-H ) :   0.9586
B( 15-C , 17-H ) :   0.9587 B( 15-C , 18-H ) :   0.9761 B( 19-C , 20-H ) :   0.9595
B( 19-C , 21-H ) :   0.9596 B( 19-C , 22-H ) :   0.9433

FINAL SINGLE POINT ENERGY      -668.218872412064

DIPOLE MOMENT
-------------
                                X             Y             Z
Electronic contribution:     -6.83023       1.61279      -0.24010
Nuclear contribution   :      6.84249      -3.00663       0.59058
                        -----------------------------------------
Total Dipole Moment    :      0.01227      -1.39384       0.35048
                        -----------------------------------------
Magnitude (a.u.)       :      1.43728
Magnitude (Debye)      :      3.65329

Rotational constants in cm-1:     0.019730     0.013270     0.009025
Rotational constants in MHz :   591.492164   397.810879   270.550884

CHEMICAL SHIELDING SUMMARY (ppm)  --  Orbital contribution
----------------------------------------------------------

  Nucleus  Element    Isotropic     Anisotropy
  -------  -------  ------------   ------------
      8       N         -243.035       -864.057
      9       H           16.165         14.830
     28       H           29.816          7.260
     29       H           29.793          7.115
     30       H           28.087          6.176
     31       H           28.029          6.267

                             ****ORCA TERMINATED NORMALLY****
TOTAL RUN TIME: 0 days 0 hours 4 minutes 8 seconds 861 msec
