                         Program Version 5.0.4 -  RELEASE  -
|  1> ! M062X def2-TZVP OPT FREQ
|  2> %pal nprocs 16 end
|  3> *XYZFile 0 2 opt.xyz
|  4>
|  5>                          ****END OF INPUT****
 Total Charge           Charge          ....    0
 Multiplicity           Mult            ....    2
 Number of Electrons    NEL             ....  109
FINAL SINGLE POINT ENERGY      -668.440327106511
FINAL SINGLE POINT ENERGY      -668.443208737874
FINAL SINGLE POINT ENERGY      -668.443330708121
FINAL SINGLE POINT ENERGY      -668.443356706412
FINAL SINGLE POINT ENERGY      -668.443384121730
FINAL SINGLE POINT ENERGY      -668.443394307023
FINAL SINGLE POINT ENERGY      -668.443398921420
FINAL SINGLE POINT ENERGY      -668.443402551984
FINAL SINGLE POINT ENERGY      -668.443407720049
FINAL SINGLE POINT ENERGY      -668.443414492333
FINAL SINGLE POINT ENERGY      -668.443419649625
                    ***********************HURRAY********************

CARTESIAN COORDINATES (ANGSTROEM)
---------------------------------
  N     -1.855343    0.776151    0.766853
  C     -1.538548   -0.107350   -0.327269
  C     -1.647945   -1.537284    0.199161
  O     -1.767727   -1.776265    1.386151
  C     -0.142490    0.167147   -0.908511
  C      0.988997   -0.139015    0.062476
  C      2.352243    0.237080   -0.502541
  C      3.487296   -0.065760    0.460358
  N      4.765047    0.311364   -0.080600
  H      5.472755    0.088633    0.624347
  H     -1.917487    0.347786    1.678642
  C     -2.240763    2.056004    0.547020
  N     -1.560719   -2.496619   -0.747683
  H     -1.511763   -2.209197   -1.710441
  O     -2.283442    2.534891   -0.570689
  C     -2.596627    2.857507    1.776744
  H     -1.866734    3.659117    1.887407
  H     -3.571580    3.315642    1.620233
  H     -2.612878    2.259677    2.686352
  C     -1.620742   -3.909678   -0.437447
  H     -2.572598   -4.343537   -0.747280
  H     -0.808423   -4.440992   -0.932044
  H     -1.518898   -4.015539    0.639148
  H     -2.278618    0.045446   -1.118846
  H     -0.011543   -0.416569   -1.824387
  H     -0.123504    1.218795   -1.201193
  H      0.979311   -1.204654    0.318057
  H      0.814363    0.402769    0.997028
  H      2.535677   -0.299151   -1.437791
  H      2.375849    1.302423   -0.746215
  H      3.494248   -1.137774    0.714068
  H      3.319545    0.451920    1.417815

 Multiplicity           Mult            ....    2
 Number of Electrons    NEL             ....  109
 Basis Dimension        Dim             ....  542

ORBITAL ENERGIES
----------------
                 SPIN UP ORBITALS
  NO   OCC          E(Eh)            E(eV)
   0   1.0000     -19.607948      -533.5594
   1   1.0000     -19.584337      -532.9169
   2   1.0000     -14.788021      -402.4025
   3   1.0000     -14.766576      -401.8190
   4   1.0000     -14.762457      -401.7069
   5   1.0000     -10.654473      -289.9229
   6   1.0000     -10.638046      -289.4760
   7   1.0000     -10.590187      -288.1736
   8   1.0000     -10.579078      -287.8713
   9   1.0000     -10.564807      -287.4830
  10   1.0000     -10.542002      -286.8625
  11   1.0000     -10.537367      -286.7363
  12   1.0000     -10.535104      -286.6747
  13   1.0000     -10.530351      -286.5454
  14   1.0000      -1.182298       -32.1720
  15   1.0000      -1.158202       -31.5163
  16   1.0000      -1.050134       -28.5756
  17   1.0000      -1.035752       -28.1842
  18   1.0000      -0.999607       -27.2007
  19   1.0000      -0.911302       -24.7978
  20   1.0000      -0.866326       -23.5739
  21   1.0000      -0.829351       -22.5678
  22   1.0000      -0.810454       -22.0536
  23   1.0000      -0.762466       -20.7478
  24   1.0000      -0.707545       -19.2533
  25   1.0000      -0.686154       -18.6712
  26   1.0000      -0.674497       -18.3540
  27   1.0000      -0.650461       -17.6999
  28   1.0000      -0.623066       -16.9545
  29   1.0000      -0.572418       -15.5763
  30   1.0000      -0.563496       -15.3335
  31   1.0000      -0.556902       -15.1541
  32   1.0000      -0.550510       -14.9801
  33   1.0000      -0.544521       -14.8172
  34   1.0000      -0.539177       -14.6718
  35   1.0000      -0.527860       -14.3638
  36   1.0000      -0.510765       -13.8986
  37   1.0000      -0.503756       -13.7079
  38   1.0000      -0.493020       -13.4157
  39   1.0000      -0.478117       -13.0102
  40   1.0000      -0.471503       -12.8303
  41   1.0000      -0.463393       -12.6096
  42   1.0000      -0.457766       -12.4565
  43   1.0000      -0.451331       -12.2813
  44   1.0000      -0.439033       -11.9467
  45   1.0000      -0.428857       -11.6698
  46   1.0000      -0.409306       -11.1378
  47   1.0000      -0.398077       -10.8322
  48   1.0000      -0.394487       -10.7345
  49   1.0000      -0.360280        -9.8037
  50   1.0000      -0.348907        -9.4943
  51   1.0000      -0.339717        -9.2442
  52   1.0000      -0.333535        -9.0759
  53   1.0000      -0.327909        -8.9229
  54   1.0000      -0.316715        -8.6183
  55   0.0000       0.039798         1.0830
  56   0.0000       0.051044         1.3890
  57   0.0000       0.062777         1.7083
  58   0.0000       0.069331         1.8866
  59   0.0000       0.071295         1.9400

                 SPIN DOWN ORBITALS
  NO   OCC          E(Eh)            E(eV)
   0   1.0000     -19.607948      -533.5594
   1   1.0000     -19.584337      -532.9169
   2   1.0000     -14.788021      -402.4025
   3   1.0000     -14.766576      -401.8190
   4   1.0000     -14.751930      -401.4204
   5   1.0000     -10.654473      -289.9229
   6   1.0000     -10.638046      -289.4760
   7   1.0000     -10.590187      -288.1736
   8   1.0000     -10.579078      -287.8713
   9   1.0000     -10.565418      -287.4996
  10   1.0000     -10.542006      -286.8626
  11   1.0000     -10.537367      -286.7363
  12   1.0000     -10.535112      -286.6750
  13   1.0000     -10.530364      -286.5458
  14   1.0000      -1.182298       -32.1720
  15   1.0000      -1.158201       -31.5163
  16   1.0000      -1.050134       -28.5756
  17   1.0000      -1.035750       -28.1842
  18   1.0000      -0.961428       -26.1618
  19   1.0000      -0.908304       -24.7162
  20   1.0000      -0.862055       -23.4577
  21   1.0000      -0.829073       -22.5602
  22   1.0000      -0.806251       -21.9392
  23   1.0000      -0.757869       -20.6227
  24   1.0000      -0.703381       -19.1400
  25   1.0000      -0.686153       -18.6712
  26   1.0000      -0.667670       -18.1682
  27   1.0000      -0.650313       -17.6959
  28   1.0000      -0.623048       -16.9540
  29   1.0000      -0.571253       -15.5446
  30   1.0000      -0.558340       -15.1932
  31   1.0000      -0.555610       -15.1189
  32   1.0000      -0.549907       -14.9637
  33   1.0000      -0.537163       -14.6169
  34   1.0000      -0.533575       -14.5193
  35   1.0000      -0.526113       -14.3163
  36   1.0000      -0.503652       -13.7051
  37   1.0000      -0.499935       -13.6039
  38   1.0000      -0.490484       -13.3467
  39   1.0000      -0.476511       -12.9665
  40   1.0000      -0.471313       -12.8251
  41   1.0000      -0.461749       -12.5648
  42   1.0000      -0.455718       -12.4007
  43   1.0000      -0.449804       -12.2398
  44   1.0000      -0.433571       -11.7981
  45   1.0000      -0.424335       -11.5468
  46   1.0000      -0.408092       -11.1047
  47   1.0000      -0.394576       -10.7370
  48   1.0000      -0.392039       -10.6679
  49   1.0000      -0.348905        -9.4942
  50   1.0000      -0.339897        -9.2491
  51   1.0000      -0.335897        -9.1402
  52   1.0000      -0.327943        -8.9238
  53   1.0000      -0.316546        -8.6137
  54   0.0000      -0.038166        -1.0386
  55   0.0000       0.039707         1.0805
  56   0.0000       0.050764         1.3814
  57   0.0000       0.061363         1.6698
  58   0.0000       0.069268         1.8849

MULLIKEN ATOMIC CHARGES AND SPIN POPULATIONS
--------------------------------------------
   0 N :   -0.395799    0.000000
   1 C :   -0.090449   -0.000436
   2 C :    0.371835    0.000391
   3 O :   -0.413757   -0.000020
   4 C :   -0.330006   -0.000036
   5 C :   -0.318233   -0.006728
   6 C :   -0.174752    0.031517
   7 C :   -0.250717   -0.123998
   8 N :   -0.325965    1.010176
   9 H :    0.216287   -0.036316
  10 H :    0.267686    0.000012
  11 C :    0.388686    0.000015
  12 N :   -0.346801   -0.000074
  13 H :    0.247352   -0.000006
  14 O :   -0.411656    0.000007
  15 C :   -0.456922   -0.000002
  16 H :    0.157942   -0.000001
  17 H :    0.160084   -0.000001
  18 H :    0.128385    0.000000
  19 C :   -0.310184    0.000019
  20 H :    0.148409   -0.000002
  21 H :    0.143708   -0.000003
  22 H :    0.181730   -0.000006
  23 H :    0.191698   -0.000037
  24 H :    0.150347    0.000133
  25 H :    0.199911    0.000093
  26 H :    0.143740    0.000168
  27 H :    0.150793    0.000343
  28 H :    0.135416   -0.000937
  29 H :    0.147549   -0.001145
  30 H :    0.146352    0.063977
  31 H :    0.147333    0.062895
Sum of atomic charges         :   -0.0000000

LOEWDIN ATOMIC CHARGES AND SPIN POPULATIONS
-------------------------------------------
   0 N :    0.144871    0.000009
   1 C :   -0.249779   -0.000053
   2 C :   -0.441633    0.000020
   3 O :    0.057054    0.000004
   4 C :   -0.239493   -0.000010
   5 C :   -0.267953    0.000187
   6 C :   -0.274526   -0.001204
   7 C :   -0.376690    0.064295
   8 N :   -0.037699    0.868628
   9 H :    0.139136    0.001102
  10 H :    0.194119    0.000002
  11 C :   -0.482981    0.000003
  12 N :    0.100384    0.000003
  13 H :    0.187063    0.000001
  14 O :    0.052571    0.000008
  15 C :   -0.262896    0.000000
  16 H :    0.138799   -0.000000
  17 H :    0.138346   -0.000000
  18 H :    0.122011    0.000000
  19 C :   -0.302330    0.000002
  20 H :    0.115862   -0.000000
  21 H :    0.115799   -0.000000
  22 H :    0.133939   -0.000000
  23 H :    0.165653   -0.000014
  24 H :    0.137114    0.000050
  25 H :    0.154614    0.000047
  26 H :    0.141371    0.000229
  27 H :    0.140896    0.000252
  28 H :    0.139719   -0.000172
  29 H :    0.142730   -0.000174
  30 H :    0.136911    0.033858
  31 H :    0.137017    0.032928

  Mayer bond orders larger than 0.100000
B(  0-N ,  1-C ) :   0.9235 B(  0-N , 10-H ) :   0.8775 B(  0-N , 11-C ) :   1.2073
B(  1-C ,  2-C ) :   0.9339 B(  1-C ,  4-C ) :   0.8788 B(  1-C , 23-H ) :   0.9929
B(  2-C ,  3-O ) :   1.9125 B(  2-C , 12-N ) :   1.2251 B(  4-C ,  5-C ) :   0.8576
B(  4-C , 24-H ) :   0.9928 B(  4-C , 25-H ) :   0.9706 B(  5-C ,  6-C ) :   0.8963
B(  5-C , 26-H ) :   0.9711 B(  5-C , 27-H ) :   0.9772 B(  6-C ,  7-C ) :   0.8990
B(  6-C ,  8-N ) :  -0.1109 B(  6-C , 28-H ) :   0.9725 B(  6-C , 29-H ) :   0.9803
B(  7-C ,  8-N ) :   1.1219 B(  7-C , 30-H ) :   0.9642 B(  7-C , 31-H ) :   0.9649
B(  8-N ,  9-H ) :   0.9246 B( 11-C , 14-O ) :   1.9191 B( 11-C , 15-C ) :   0.9110
B( 12-N , 13-H ) :   0.9175 B( 12-N , 19-C ) :   0.9028 B( 15-C , 16-H ) :   0.9547
B( 15-C , 17-H ) :   0.9664 B( 15-C , 18-H ) :   0.9856 B( 19-C , 20-H ) :   0.9697
B( 19-C , 21-H ) :   0.9680 B( 19-C , 22-H ) :   0.9625

FINAL SINGLE POINT ENERGY      -668.443420915557

DIPOLE MOMENT
-------------
                                X             Y             Z
Electronic contribution:     -6.93195       1.76036      -0.21178
Nuclear contribution   :      7.00363      -3.14925       0.54136
                        -----------------------------------------
Total Dipole Moment    :      0.07169      -1.38889       0.32958
                        -----------------------------------------
Magnitude (a.u.)       :      1.42926
Magnitude (Debye)      :      3.63288

VIBRATIONAL FREQUENCIES
-----------------------

Scaling factor for frequencies =  1.000000000  (already applied!)

   0:         0.00 cm**-1
   1:         0.00 cm**-1
   2:         0.00 cm**-1
   3:         0.00 cm**-1
   4:         0.00 cm**-1
   5:         0.00 cm**-1
   6:        36.24 cm**-1
   7:        51.44 cm**-1
   8:        70.13 cm**-1
   9:        81.36 cm**-1
  10:        89.71 cm**-1
  11:       102.87 cm**-1
  12:       111.24 cm**-1
  13:       117.26 cm**-1
  14:       126.96 cm**-1
  15:       148.69 cm**-1
  16:       150.90 cm**-1
  17:       171.29 cm**-1
  18:       214.55 cm**-1
  19:       248.73 cm**-1
  20:       300.66 cm**-1
  21:       334.11 cm**-1
  22:       354.76 cm**-1
  23:       392.48 cm**-1
  24:       407.44 cm**-1
  25:       437.55 cm**-1
  26:       500.73 cm**-1
  27:       523.61 cm**-1
  28:       549.99 cm**-1
  29:       578.97 cm**-1
  30:       637.45 cm**-1
  31:       665.97 cm**-1
  32:       699.74 cm**-1
  33:       725.42 cm**-1
  34:       763.47 cm**-1
  35:       814.86 cm**-1
  36:       882.36 cm**-1
  37:       900.31 cm**-1
  38:       945.40 cm**-1
  39:      1001.26 cm**-1
  40:      1019.65 cm**-1
  41:      1026.27 cm**-1
  42:      1066.15 cm**-1
  43:      1066.42 cm**-1
  44:      1073.26 cm**-1
  45:      1079.92 cm**-1
  46:      1094.77 cm**-1
  47:      1099.62 cm**-1
  48:      1144.42 cm**-1
  49:      1159.49 cm**-1
  50:      1182.72 cm**-1
  51:      1200.20 cm**-1
  52:      1220.09 cm**-1
  53:      1245.56 cm**-1
  54:      1271.83 cm**-1
  55:      1277.27 cm**-1
  56:      1283.63 cm**-1
  57:      1319.94 cm**-1
  58:      1325.90 cm**-1
  59:      1339.72 cm**-1
  60:      1371.09 cm**-1
  61:      1389.08 cm**-1
  62:      1411.82 cm**-1
  63:      1416.10 cm**-1
  64:      1425.49 cm**-1
  65:      1446.44 cm**-1
  66:      1449.90 cm**-1
  67:      1476.55 cm**-1
  68:      1486.53 cm**-1
  69:      1489.20 cm**-1
  70:      1492.88 cm**-1
  71:      1505.87 cm**-1
  72:      1507.50 cm**-1
  73:      1511.79 cm**-1
  74:      1549.13 cm**-1
  75:      1591.18 cm**-1
  76:      1775.79 cm**-1
  77:      1789.39 cm**-1
  78:      2980.36 cm**-1
  79:      3009.19 cm**-1
  80:      3047.33 cm**-1
  81:      3065.93 cm**-1
  82:      3069.45 cm**-1
  83:      3075.53 cm**-1
  84:      3079.17 cm**-1
  85:      3088.87 cm**-1
  86:      3090.22 cm**-1
  87:      3117.85 cm**-1
  88:      3130.76 cm**-1
  89:      3142.36 cm**-1
  90:      3171.44 cm**-1
  91:      3183.14 cm**-1
  92:      3193.69 cm**-1
  93:      3440.05 cm**-1
  94:      3621.47 cm**-1
  95:      3660.51 cm**-1

IR SPECTRUM
-----------

 Mode   freq       eps      Int      T**2         TX        TY        TZ
       cm**-1   L/(mol*cm) km/mol    a.u.
----------------------------------------------------------------------------
  6:     36.24   0.000181    0.91  0.001555  (-0.029607 -0.024013 -0.010086)
  7:     51.44   0.000253    1.28  0.001533  (-0.038051  0.008443 -0.003728)
  8:     70.13   0.000332    1.68  0.001477  ( 0.031482  0.019772  0.009720)
  9:     81.36   0.001120    5.66  0.004295  (-0.038582  0.048773  0.020678)
 10:     89.71   0.001166    5.89  0.004055  ( 0.055889  0.028762  0.010200)
 11:    102.87   0.001771    8.95  0.005371  (-0.059793 -0.041012 -0.010684)
 12:    111.24   0.000519    2.62  0.001457  ( 0.005285  0.037424  0.005320)
 13:    117.26   0.000325    1.64  0.000866  (-0.017849 -0.022764 -0.005359)
 14:    126.96   0.000188    0.95  0.000462  ( 0.021433  0.001471  0.000652)
 15:    148.69   0.002474   12.50  0.005192  ( 0.059765 -0.039751  0.006345)
 16:    150.90   0.001422    7.19  0.002940  ( 0.015345 -0.050188 -0.013633)
 17:    171.29   0.000165    0.83  0.000300  (-0.012302 -0.010401  0.006388)
 18:    214.55   0.000020    0.10  0.000029  ( 0.004602  0.002729 -0.000217)
 19:    248.73   0.000665    3.36  0.000835  (-0.004282  0.023608  0.016097)
 20:    300.66   0.000910    4.60  0.000945  (-0.015580  0.025922  0.005489)
 21:    334.11   0.001297    6.55  0.001211  ( 0.032697 -0.011755 -0.002024)
 22:    354.76   0.000157    0.79  0.000138  ( 0.011697 -0.000224 -0.000995)
 23:    392.48   0.004235   21.40  0.003368  (-0.006627 -0.055662 -0.015013)
 24:    407.44   0.013283   67.13  0.010174  ( 0.004358 -0.093082 -0.038611)
 25:    437.55   0.006997   35.36  0.004990  ( 0.069113 -0.002103 -0.014466)
 26:    500.73   0.003151   15.93  0.001964  (-0.040488  0.009204  0.015491)
 27:    523.61   0.006910   34.92  0.004119  (-0.056783 -0.022000 -0.020255)
 28:    549.99   0.021236  107.32  0.012049  (-0.108436 -0.012308 -0.011807)
 29:    578.97   0.001729    8.74  0.000932  (-0.004819  0.027747  0.011773)
 30:    637.45   0.002534   12.81  0.001240  (-0.027967  0.020872 -0.004767)
 31:    665.97   0.000798    4.03  0.000374  ( 0.014760  0.012125  0.003035)
 32:    699.74   0.000203    1.02  0.000090  (-0.005625  0.003265  0.006936)
 33:    725.42   0.000863    4.36  0.000371  (-0.004087  0.017793  0.006163)
 34:    763.47   0.000374    1.89  0.000153  (-0.006276  0.010644  0.000327)
 35:    814.86   0.000769    3.89  0.000294  ( 0.014493  0.008322  0.003896)
 36:    882.36   0.000567    2.86  0.000200  (-0.001876  0.009853 -0.009988)
 37:    900.31   0.000580    2.93  0.000201  (-0.001611 -0.012943 -0.005570)
 38:    945.40   0.001085    5.48  0.000358  (-0.004265 -0.010033 -0.015464)
 39:   1001.26   0.002854   14.42  0.000890  ( 0.025523  0.001590 -0.015348)
 40:   1019.65   0.002982   15.07  0.000913  ( 0.014942 -0.026049 -0.003312)
 41:   1026.27   0.000817    4.13  0.000249  (-0.010854 -0.006725 -0.009248)
 42:   1066.15   0.000526    2.66  0.000154  (-0.003577  0.009596  0.007007)
 43:   1066.42   0.001520    7.68  0.000445  (-0.019199 -0.007407 -0.004626)
 44:   1073.26   0.002334   11.80  0.000679  (-0.025693 -0.003459  0.002581)
 45:   1079.92   0.000477    2.41  0.000138  (-0.000930  0.006471  0.009753)
 46:   1094.77   0.001494    7.55  0.000426  ( 0.020620 -0.000174  0.000731)
 47:   1099.62   0.000574    2.90  0.000163  ( 0.001179  0.000754  0.012685)
 48:   1144.42   0.000862    4.36  0.000235  ( 0.008731  0.012173 -0.003272)
 49:   1159.49   0.001519    7.67  0.000409  ( 0.005234 -0.016402 -0.010597)
 50:   1182.72   0.004904   24.78  0.001294  (-0.001648 -0.029872 -0.019971)
 51:   1200.20   0.002154   10.89  0.000560  ( 0.018408  0.011824 -0.009026)
 52:   1220.09   0.002571   12.99  0.000658  (-0.005941  0.022503  0.010772)
 53:   1245.56   0.004978   25.16  0.001247  (-0.009208 -0.033880 -0.003832)
 54:   1271.83   0.007632   38.57  0.001873  ( 0.007375 -0.041502 -0.009788)
 55:   1277.27   0.001367    6.91  0.000334  ( 0.009558  0.015454  0.001946)
 56:   1283.63   0.004173   21.09  0.001015  (-0.029913  0.006745  0.008616)
 57:   1319.94   0.003609   18.24  0.000853  (-0.003337  0.028818  0.003397)
 58:   1325.90   0.002056   10.39  0.000484  ( 0.001305 -0.021616  0.003882)
 59:   1339.72   0.000364    1.84  0.000085  ( 0.002923 -0.008399 -0.002364)
 60:   1371.09   0.002221   11.23  0.000506  ( 0.007138 -0.020939 -0.004028)
 61:   1389.08   0.000853    4.31  0.000192  (-0.002477 -0.013379  0.002532)
 62:   1411.82   0.008406   42.48  0.001858  ( 0.010905 -0.037870 -0.017464)
 63:   1416.10   0.000631    3.19  0.000139  (-0.003922  0.007504 -0.008205)
 64:   1425.49   0.000628    3.18  0.000138  (-0.010385 -0.000179  0.005448)
 65:   1446.44   0.001108    5.60  0.000239  ( 0.011868  0.005626 -0.008151)
 66:   1449.90   0.003331   16.83  0.000717  (-0.004924 -0.001882 -0.026251)
 67:   1476.55   0.002450   12.38  0.000518  (-0.019212  0.011128 -0.004977)
 68:   1486.53   0.001014    5.12  0.000213  ( 0.003165  0.010569 -0.009544)
 69:   1489.20   0.009424   47.63  0.001975  ( 0.003397 -0.043365  0.009101)
 70:   1492.88   0.000400    2.02  0.000084  ( 0.003936 -0.008034 -0.001904)
 71:   1505.87   0.006103   30.84  0.001265  (-0.014288  0.032529  0.001528)
 72:   1507.50   0.002078   10.50  0.000430  ( 0.006644  0.001944 -0.019550)
 73:   1511.79   0.011652   58.89  0.002405  (-0.006308 -0.048213 -0.006404)
 74:   1549.13   0.097688  493.67  0.019679  ( 0.045559 -0.125880 -0.041919)
 75:   1591.18   0.027537  139.16  0.005401  (-0.016156 -0.060080 -0.039114)
 76:   1775.79   0.085356  431.36  0.015000  ( 0.007754 -0.044423  0.113869)
 77:   1789.39   0.018087   91.41  0.003154  (-0.020279  0.038666  0.035328)
 78:   2980.36   0.003112   15.73  0.000326  (-0.003319  0.007509 -0.016077)
 79:   3009.19   0.002656   13.42  0.000275  (-0.002217  0.014872  0.007025)
 80:   3047.33   0.001892    9.56  0.000194  (-0.000420  0.010731 -0.008858)
 81:   3065.93   0.000177    0.89  0.000018  ( 0.002693 -0.001633 -0.002843)
 82:   3069.45   0.005539   27.99  0.000563  ( 0.006224  0.008992 -0.021060)
 83:   3075.53   0.010896   55.07  0.001106  ( 0.006673  0.030260  0.012058)
 84:   3079.17   0.002660   13.44  0.000270  ( 0.003607  0.007109  0.014354)
 85:   3088.87   0.000608    3.07  0.000061  ( 0.001055 -0.001309 -0.007652)
 86:   3090.22   0.001753    8.86  0.000177  (-0.000646  0.006886  0.011366)
 87:   3117.85   0.002394   12.10  0.000240  (-0.002467  0.013830  0.006498)
 88:   3130.76   0.004559   23.04  0.000454  (-0.001458 -0.019238 -0.009066)
 89:   3142.36   0.002964   14.98  0.000294  (-0.016710  0.002937  0.002547)
 90:   3171.44   0.000508    2.57  0.000050  (-0.004679 -0.003085  0.004309)
 91:   3183.14   0.001221    6.17  0.000120  ( 0.002298 -0.005989  0.008861)
 92:   3193.69   0.000009    0.04  0.000001  ( 0.000162  0.000316  0.000859)
 93:   3440.05   0.000436    2.20  0.000040  (-0.005713  0.000421 -0.002588)
 94:   3621.47   0.020017  101.16  0.001725  (-0.000838  0.033961 -0.023891)
 95:   3660.51   0.007997   40.41  0.000682  (-0.000600  0.001466  0.026062)

--------------------------
THERMOCHEMISTRY AT 298.15K
--------------------------

Temperature         ... 298.15 K
Pressure            ... 1.00 atm
Total Mass          ... 200.26 AMU

Throughout the following assumptions are being made:
  (1) The electronic state is orbitally nondegenerate
      but the spin degeneracy is treated
  (2) There are no thermally accessible electronically excited states
  (3) Hindered rotations indicated by low frequency modes are not
      treated as such but are treated as vibrations and this may
      cause some error
  (4) All equations used are the standard statistical mechanics
      equations for an ideal gas
  (5) All vibrations are strictly harmonic

freq.      36.24  E(vib)   ...       0.54
freq.      51.44  E(vib)   ...       0.52
freq.      70.13  E(vib)   ...       0.50
freq.      81.36  E(vib)   ...       0.48
freq.      89.71  E(vib)   ...       0.47
freq.     102.87  E(vib)   ...       0.46
freq.     111.24  E(vib)   ...       0.45
freq.     117.26  E(vib)   ...       0.44
freq.     126.96  E(vib)   ...       0.43
freq.     148.69  E(vib)   ...       0.41
freq.     150.90  E(vib)   ...       0.40
freq.     171.29  E(vib)   ...       0.38
freq.     214.55  E(vib)   ...       0.34
freq.     248.73  E(vib)   ...       0.31
freq.     300.66  E(vib)   ...       0.26
freq.     334.11  E(vib)   ...       0.24
freq.     354.76  E(vib)   ...       0.22
freq.     392.48  E(vib)   ...       0.20
freq.     407.44  E(vib)   ...       0.19
freq.     437.55  E(vib)   ...       0.17
freq.     500.73  E(vib)   ...       0.14
freq.     523.61  E(vib)   ...       0.13
freq.     549.99  E(vib)   ...       0.12
freq.     578.97  E(vib)   ...       0.11
freq.     637.45  E(vib)   ...       0.09
freq.     665.97  E(vib)   ...       0.08
freq.     699.74  E(vib)   ...       0.07
freq.     725.42  E(vib)   ...       0.06
freq.     763.47  E(vib)   ...       0.06
freq.     814.86  E(vib)   ...       0.05
freq.     882.36  E(vib)   ...       0.04
freq.     900.31  E(vib)   ...       0.03
freq.     945.40  E(vib)   ...       0.03
freq.    1001.26  E(vib)   ...       0.02
freq.    1019.65  E(vib)   ...       0.02
freq.    1026.27  E(vib)   ...       0.02
freq.    1066.15  E(vib)   ...       0.02
freq.    1066.42  E(vib)   ...       0.02
freq.    1073.26  E(vib)   ...       0.02
freq.    1079.92  E(vib)   ...       0.02
freq.    1094.77  E(vib)   ...       0.02
freq.    1099.62  E(vib)   ...       0.02
freq.    1144.42  E(vib)   ...       0.01
freq.    1159.49  E(vib)   ...       0.01
freq.    1182.72  E(vib)   ...       0.01
freq.    1200.20  E(vib)   ...       0.01
freq.    1220.09  E(vib)   ...       0.01
freq.    1245.56  E(vib)   ...       0.01
freq.    1271.83  E(vib)   ...       0.01
freq.    1277.27  E(vib)   ...       0.01
freq.    1283.63  E(vib)   ...       0.01
freq.    1319.94  E(vib)   ...       0.01
freq.    1325.90  E(vib)   ...       0.01
freq.    1339.72  E(vib)   ...       0.01
freq.    1371.09  E(vib)   ...       0.01
freq.    1389.08  E(vib)   ...       0.00
freq.    1411.82  E(vib)   ...       0.00
freq.    1416.10  E(vib)   ...       0.00
freq.    1425.49  E(vib)   ...       0.00
freq.    1446.44  E(vib)   ...       0.00
freq.    1449.90  E(vib)   ...       0.00
freq.    1476.55  E(vib)   ...       0.00
freq.    1486.53  E(vib)   ...       0.00
freq.    1489.20  E(vib)   ...       0.00
freq.    1492.88  E(vib)   ...       0.00
freq.    1505.87  E(vib)   ...       0.00
freq.    1507.50  E(vib)   ...       0.00
freq.    1511.79  E(vib)   ...       0.00
freq.    1549.13  E(vib)   ...       0.00
freq.    1591.18  E(vib)   ...       0.00
freq.    1775.79  E(vib)   ...       0.00
freq.    1789.39  E(vib)   ...       0.00
freq.    2980.36  E(vib)   ...       0.00
freq.    3009.19  E(vib)   ...       0.00
freq.    3047.33  E(vib)   ...       0.00
freq.    3065.93  E(vib)   ...       0.00
freq.    3069.45  E(vib)   ...       0.00
freq.    3075.53  E(vib)   ...       0.00
freq.    3079.17  E(vib)   ...       0.00
freq.    3088.87  E(vib)   ...       0.00
freq.    3090.22  E(vib)   ...       0.00
freq.    3117.85  E(vib)   ...       0.00
freq.    3130.76  E(vib)   ...       0.00
freq.    3142.36  E(vib)   ...       0.00
freq.    3171.44  E(vib)   ...       0.00
freq.    3183.14  E(vib)   ...       0.00
freq.    3193.69  E(vib)   ...       0.00
freq.    3440.05  E(vib)   ...       0.00
freq.    3621.47  E(vib)   ...       0.00
freq.    3660.51  E(vib)   ...       0.00

------------
INNER ENERGY
------------

The inner energy is: U= E(el) + E(ZPE) + E(vib) + E(rot) + E(trans)
    E(el)   - is the total energy from the electronic structure calculation
              = E(kin-el) + E(nuc-el) + E(el-el) + E(nuc-nuc)
    E(ZPE)  - the the zero temperature vibrational energy from the frequency calculation
    E(vib)  - the the finite temperature correction to E(ZPE) due to population
              of excited vibrational states
    E(rot)  - is the rotational thermal energy
    E(trans)- is the translational thermal energy

Summary of contributions to the inner energy U:
Electronic energy                ...   -668.44342092 Eh
Zero point energy                ...      0.27768085 Eh     174.25 kcal/mol
Thermal vibrational correction   ...      0.01394197 Eh       8.75 kcal/mol
Thermal rotational correction    ...      0.00141627 Eh       0.89 kcal/mol
Thermal translational correction ...      0.00141627 Eh       0.89 kcal/mol
-----------------------------------------------------------------------
Total thermal energy                   -668.14896555 Eh

Summary of corrections to the electronic energy:
(perhaps to be used in another calculation)
Total thermal correction                  0.01677451 Eh      10.53 kcal/mol
Non-thermal (ZPE) correction              0.27768085 Eh     174.25 kcal/mol
-----------------------------------------------------------------------
Total correction                          0.29445536 Eh     184.77 kcal/mol

--------
ENTHALPY
--------

The enthalpy is H = U + kB*T
                kB is Boltzmann's constant
Total free energy                 ...   -668.14896555 Eh
Thermal Enthalpy correction       ...      0.00094421 Eh       0.59 kcal/mol
-----------------------------------------------------------------------
Total Enthalpy                    ...   -668.14802134 Eh

Note: Only C1 symmetry has been detected, increase convergence thresholds
      if your molecule has a higher symmetry. Symmetry factor of 1.0 is
      used for the rotational entropy correction.

Note: Rotational entropy computed according to Herzberg
Infrared and Raman Spectra, Chapter V,1, Van Nostrand Reinhold, 1945
Point Group:  C1, Symmetry Number:   1
Rotational constants in cm-1:     0.020031     0.013980     0.009381

                             ****ORCA TERMINATED NORMALLY****
TOTAL RUN TIME: 0 days 0 hours 26 minutes 14 seconds 221 msec
