                         Program Version 5.0.4 -  RELEASE  -
|  1> ! B3LYP EPR-II OPT
|  2> %pal nprocs 16 end
|  3> *XYZFile 0 2 model.xyz
|  4>
|  5>                          ****END OF INPUT****
 Total Charge           Charge          ....    0
 Multiplicity           Mult            ....    2
 Number of Electrons    NEL             ....  109
FINAL SINGLE POINT ENERGY      -668.217626544529
FINAL SINGLE POINT ENERGY      -668.219041077316
FINAL SINGLE POINT ENERGY      -668.219123059578
FINAL SINGLE POINT ENERGY      -668.219151083518
FINAL SINGLE POINT ENERGY      -668.219165549855
FINAL SINGLE POINT ENERGY      -668.219178155121
FINAL SINGLE POINT ENERGY      -668.219196582254
FINAL SINGLE POINT ENERGY      -668.219206702052
FINAL SINGLE POINT ENERGY      -668.219221789848
FINAL SINGLE POINT ENERGY      -668.219232619204
FINAL SINGLE POINT ENERGY      -668.219307382293
FINAL SINGLE POINT ENERGY      -668.219327605710
FINAL SINGLE POINT ENERGY      -668.219375377623
FINAL SINGLE POINT ENERGY      -668.219401858658
FINAL SINGLE POINT ENERGY      -668.219417950688
FINAL SINGLE POINT ENERGY      -668.219429779614
FINAL SINGLE POINT ENERGY      -668.219437136527
FINAL SINGLE POINT ENERGY      -668.219442333102
FINAL SINGLE POINT ENERGY      -668.219443390205
                    ***********************HURRAY********************

CARTESIAN COORDINATES (ANGSTROEM)
---------------------------------
  N     -1.827890    0.776024    0.766471
  C     -1.496899   -0.115084   -0.333278
  C     -1.652820   -1.557598    0.191222
  O     -1.709629   -1.805575    1.397669
  C     -0.075628    0.139380   -0.907612
  C      1.071583   -0.089654    0.090268
  C      2.449358    0.221369   -0.518550
  C      3.599308    0.020111    0.477407
  N      4.893634    0.296176   -0.116193
  H      5.589756    0.145818    0.626660
  H     -1.871123    0.339864    1.678635
  C     -2.285822    2.047819    0.560314
  N     -1.690152   -2.518894   -0.776133
  H     -1.683113   -2.222224   -1.740232
  O     -2.368652    2.545447   -0.563596
  C     -2.676603    2.822661    1.815513
  H     -2.053636    3.719244    1.877514
  H     -3.714989    3.148647    1.711900
  H     -2.568247    2.244309    2.736944
  C     -1.801962   -3.943815   -0.483405
  H     -2.758447   -4.345434   -0.835073
  H     -0.985558   -4.501670   -0.953294
  H     -1.744112   -4.066310    0.598188
  H     -2.217217    0.058967   -1.142223
  H      0.068074   -0.500843   -1.788032
  H     -0.060820    1.173962   -1.266167
  H      1.056434   -1.128572    0.446590
  H      0.909670    0.542230    0.972489
  H      2.630184   -0.418634   -1.391377
  H      2.476496    1.256777   -0.879700
  H      3.585626   -1.014296    0.870555
  H      3.450151    0.662766    1.365446

 Multiplicity           Mult            ....    2
 Number of Electrons    NEL             ....  109
 Basis Dimension        Dim             ....  364

ORBITAL ENERGIES
----------------
                 SPIN UP ORBITALS
  NO   OCC          E(Eh)            E(eV)
   0   1.0000     -19.124195      -520.3958
   1   1.0000     -19.100689      -519.7562
   2   1.0000     -14.374339      -391.1456
   3   1.0000     -14.350753      -390.5038
   4   1.0000     -14.346721      -390.3941
   5   1.0000     -10.305485      -280.4265
   6   1.0000     -10.289071      -279.9799
   7   1.0000     -10.240495      -278.6580
   8   1.0000     -10.227151      -278.2949
   9   1.0000     -10.216144      -277.9954
  10   1.0000     -10.192231      -277.3447
  11   1.0000     -10.186725      -277.1949
  12   1.0000     -10.184999      -277.1479
  13   1.0000     -10.181245      -277.0458
  14   1.0000      -1.047138       -28.4941
  15   1.0000      -1.022983       -27.8368
  16   1.0000      -0.933659       -25.4062
  17   1.0000      -0.917684       -24.9715
  18   1.0000      -0.883623       -24.0446
  19   1.0000      -0.801021       -21.7969
  20   1.0000      -0.761260       -20.7149
  21   1.0000      -0.728757       -19.8305
  22   1.0000      -0.712593       -19.3906
  23   1.0000      -0.667929       -18.1753
  24   1.0000      -0.616219       -16.7682
  25   1.0000      -0.599520       -16.3138
  26   1.0000      -0.585843       -15.9416
  27   1.0000      -0.565417       -15.3858
  28   1.0000      -0.539054       -14.6684
  29   1.0000      -0.485806       -13.2195
  30   1.0000      -0.482269       -13.1232
  31   1.0000      -0.474411       -12.9094
  32   1.0000      -0.467031       -12.7086
  33   1.0000      -0.463998       -12.6260
  34   1.0000      -0.457685       -12.4542
  35   1.0000      -0.447353       -12.1731
  36   1.0000      -0.436680       -11.8827
  37   1.0000      -0.427330       -11.6282
  38   1.0000      -0.415875       -11.3165
  39   1.0000      -0.403551       -10.9812
  40   1.0000      -0.398786       -10.8515
  41   1.0000      -0.393120       -10.6973
  42   1.0000      -0.381772       -10.3885
  43   1.0000      -0.377548       -10.2736
  44   1.0000      -0.367776       -10.0077
  45   1.0000      -0.356898        -9.7117
  46   1.0000      -0.341967        -9.3054
  47   1.0000      -0.332061        -9.0358
  48   1.0000      -0.329052        -8.9540
  49   1.0000      -0.287656        -7.8275
  50   1.0000      -0.272426        -7.4131
  51   1.0000      -0.271693        -7.3932
  52   1.0000      -0.266401        -7.2491
  53   1.0000      -0.250307        -6.8112
  54   1.0000      -0.246902        -6.7185
  55   0.0000       0.004374         0.1190
  56   0.0000       0.008766         0.2385
  57   0.0000       0.020412         0.5554
  58   0.0000       0.025743         0.7005
  59   0.0000       0.028709         0.7812

                 SPIN DOWN ORBITALS
  NO   OCC          E(Eh)            E(eV)
   0   1.0000     -19.124195      -520.3958
   1   1.0000     -19.100689      -519.7562
   2   1.0000     -14.374339      -391.1456
   3   1.0000     -14.350753      -390.5038
   4   1.0000     -14.328112      -389.8877
   5   1.0000     -10.305485      -280.4265
   6   1.0000     -10.289071      -279.9799
   7   1.0000     -10.240497      -278.6581
   8   1.0000     -10.227151      -278.2949
   9   1.0000     -10.216913      -278.0163
  10   1.0000     -10.192237      -277.3449
  11   1.0000     -10.186725      -277.1949
  12   1.0000     -10.185009      -277.1482
  13   1.0000     -10.181270      -277.0464
  14   1.0000      -1.047137       -28.4941
  15   1.0000      -1.022983       -27.8368
  16   1.0000      -0.933659       -25.4062
  17   1.0000      -0.917683       -24.9714
  18   1.0000      -0.851140       -23.1607
  19   1.0000      -0.798768       -21.7356
  20   1.0000      -0.757830       -20.6216
  21   1.0000      -0.728667       -19.8280
  22   1.0000      -0.709077       -19.2950
  23   1.0000      -0.663852       -18.0643
  24   1.0000      -0.612627       -16.6704
  25   1.0000      -0.599519       -16.3137
  26   1.0000      -0.580617       -15.7994
  27   1.0000      -0.565326       -15.3833
  28   1.0000      -0.539045       -14.6682
  29   1.0000      -0.484844       -13.1933
  30   1.0000      -0.477823       -13.0022
  31   1.0000      -0.473363       -12.8809
  32   1.0000      -0.465649       -12.6710
  33   1.0000      -0.458838       -12.4856
  34   1.0000      -0.455061       -12.3828
  35   1.0000      -0.445812       -12.1312
  36   1.0000      -0.430692       -11.7197
  37   1.0000      -0.425375       -11.5750
  38   1.0000      -0.414109       -11.2685
  39   1.0000      -0.403510       -10.9801
  40   1.0000      -0.397338       -10.8121
  41   1.0000      -0.392141       -10.6707
  42   1.0000      -0.380219       -10.3463
  43   1.0000      -0.376708       -10.2508
  44   1.0000      -0.362634        -9.8678
  45   1.0000      -0.355475        -9.6730
  46   1.0000      -0.341260        -9.2862
  47   1.0000      -0.330334        -8.9888
  48   1.0000      -0.327386        -8.9086
  49   1.0000      -0.272430        -7.4132
  50   1.0000      -0.271701        -7.3934
  51   1.0000      -0.267686        -7.2841
  52   1.0000      -0.250208        -6.8085
  53   1.0000      -0.246904        -6.7186
  54   0.0000      -0.088158        -2.3989
  55   0.0000       0.004380         0.1192
  56   0.0000       0.008839         0.2405
  57   0.0000       0.020970         0.5706
  58   0.0000       0.025972         0.7067

MULLIKEN ATOMIC CHARGES AND SPIN POPULATIONS
--------------------------------------------
   0 N :   -0.118298    0.000008
   1 C :   -0.127418   -0.000066
   2 C :    0.089068   -0.000008
   3 O :   -0.333986    0.000014
   4 C :   -0.274308    0.000034
   5 C :   -0.252579   -0.004283
   6 C :   -0.270275    0.000708
   7 C :   -0.295894   -0.057477
   8 N :   -0.300566    0.966808
   9 H :    0.194526   -0.032535
  10 H :    0.251935    0.000000
  11 C :    0.169986   -0.000002
  12 N :   -0.093293    0.000006
  13 H :    0.231399    0.000001
  14 O :   -0.325184    0.000007
  15 C :   -0.553405    0.000000
  16 H :    0.185220   -0.000000
  17 H :    0.186427   -0.000000
  18 H :    0.148219   -0.000000
  19 C :   -0.457991    0.000001
  20 H :    0.165235   -0.000000
  21 H :    0.160598   -0.000000
  22 H :    0.199753   -0.000000
  23 H :    0.163759   -0.000032
  24 H :    0.130733    0.000063
  25 H :    0.179686    0.000071
  26 H :    0.144436    0.000355
  27 H :    0.152052    0.000352
  28 H :    0.156102    0.001513
  29 H :    0.162469    0.001515
  30 H :    0.165157    0.062600
  31 H :    0.166438    0.060348
Sum of atomic charges         :    0.0000000

LOEWDIN ATOMIC CHARGES AND SPIN POPULATIONS
-------------------------------------------
   0 N :    0.063670    0.000008
   1 C :   -0.048547   -0.000054
   2 C :   -0.093356    0.000003
   3 O :   -0.196160    0.000006
   4 C :   -0.057061   -0.000135
   5 C :   -0.075115   -0.000303
   6 C :   -0.086378   -0.001408
   7 C :   -0.094806    0.007262
   8 N :   -0.060257    0.898186
   9 H :    0.043797    0.007421
  10 H :    0.090121    0.000000
  11 C :   -0.104660   -0.000001
  12 N :    0.041800    0.000000
  13 H :    0.079838    0.000002
  14 O :   -0.197751    0.000008
  15 C :   -0.042929   -0.000000
  16 H :    0.054040   -0.000000
  17 H :    0.054465   -0.000000
  18 H :    0.033415    0.000000
  19 C :    0.011212   -0.000000
  20 H :    0.032058   -0.000000
  21 H :    0.031558   -0.000000
  22 H :    0.054874    0.000000
  23 H :    0.066890   -0.000015
  24 H :    0.042967    0.000054
  25 H :    0.059145    0.000060
  26 H :    0.047335    0.000302
  27 H :    0.048127    0.000272
  28 H :    0.047247    0.000050
  29 H :    0.049382    0.000035
  30 H :    0.052768    0.044916
  31 H :    0.052309    0.043332

  Mayer bond orders larger than 0.100000
B(  0-N ,  1-C ) :   1.0193 B(  0-N , 10-H ) :   0.8936 B(  0-N , 11-C ) :   1.2064
B(  1-C ,  2-C ) :   0.8998 B(  1-C ,  4-C ) :   0.9287 B(  1-C , 14-O ) :   0.1443
B(  1-C , 23-H ) :   0.9718 B(  2-C ,  3-O ) :   1.8682 B(  2-C , 12-N ) :   1.1860
B(  4-C ,  5-C ) :   0.9672 B(  4-C , 24-H ) :   0.9760 B(  4-C , 25-H ) :   0.9634
B(  5-C ,  6-C ) :   0.9642 B(  5-C , 26-H ) :   0.9629 B(  5-C , 27-H ) :   0.9712
B(  6-C ,  7-C ) :   0.9418 B(  6-C , 28-H ) :   0.9750 B(  6-C , 29-H ) :   0.9725
B(  7-C ,  8-N ) :   1.0102 B(  7-C , 30-H ) :   0.9287 B(  7-C , 31-H ) :   0.9284
B(  8-N ,  9-H ) :   0.9202 B( 11-C , 14-O ) :   1.8612 B( 11-C , 15-C ) :   0.8945
B( 12-N , 13-H ) :   0.9299 B( 12-N , 19-C ) :   0.9703 B( 15-C , 16-H ) :   0.9588
B( 15-C , 17-H ) :   0.9589 B( 15-C , 18-H ) :   0.9759 B( 19-C , 20-H ) :   0.9597
B( 19-C , 21-H ) :   0.9597 B( 19-C , 22-H ) :   0.9433

FINAL SINGLE POINT ENERGY      -668.219443867449

DIPOLE MOMENT
-------------
                                X             Y             Z
Electronic contribution:     -6.83015       1.61330      -0.23991
Nuclear contribution   :      6.84249      -3.00663       0.59058
                        -----------------------------------------
Total Dipole Moment    :      0.01235      -1.39333       0.35066
                        -----------------------------------------
Magnitude (a.u.)       :      1.43684
Magnitude (Debye)      :      3.65215

Rotational constants in cm-1:     0.019730     0.013270     0.009025
Rotational constants in MHz :   591.492164   397.810879   270.550884

                             ****ORCA TERMINATED NORMALLY****
TOTAL RUN TIME: 0 days 0 hours 45 minutes 12 seconds 721 msec
