                         Program Version 5.0.4 -  RELEASE  -
|  1> ! B3LYP EPR-II AUTOAUX
|  2> %pal nprocs 16 end
|  3> *XYZFile 1 2 opt.xyz
|  4> %EPRNMR
|  5>         GTENSOR   TRUE
|  6>         NUCLEI    = 9,10,11,12,13,19,29,30,31,32,33 {SHIFT, AISO, ADIP, AORB}
|  7>         ORI       GIAO
|  8> END
|  9>
| 10>                          ****END OF INPUT****

CARTESIAN COORDINATES (ANGSTROEM)
---------------------------------
  N     -7.570114    1.332167   -0.035866
  C     -6.139711    1.163604    0.220474
  C     -6.068007    0.529956    1.641703
  O     -7.079422    0.467331    2.341866
  C     -5.291966    2.455937    0.081203
  C     -5.850617    3.690407    0.856911
  C     -5.449205    4.989859    0.221013
  C     -6.370739    5.753442   -0.676785
  N     -6.509954    5.104760   -2.068554
  H     -6.027754    6.776332   -0.843237
  H     -7.391589    5.779898   -0.281852
  H     -7.126802    5.658789   -2.668456
  H     -6.919542    4.116984   -1.991081
  H     -8.139377    0.905527    0.693199
  C     -8.169706    2.017355   -1.022761
  N     -4.846174    0.082959    2.023164
  H     -4.102475    0.070350    1.340557
  O     -7.535793    2.695916   -1.870463
  H     -5.599613    5.043062   -2.529114
  C     -4.612289   -0.587448    3.305866
  H     -4.588518   -1.674906    3.183079
  H     -3.663821   -0.250297    3.730304
  H     -5.426334   -0.327738    3.981823
  C     -9.682107    1.920477   -1.093286
  H    -10.109504    2.925853   -1.136331
  H     -9.945042    1.413845   -2.027131
  H    -10.120200    1.372662   -0.256970
  H     -5.735463    0.435617   -0.496525
  H     -4.274206    2.242225    0.421040
  H     -5.223769    2.679326   -0.983999
  H     -5.490728    3.656029    1.891616
  H     -6.942778    3.624837    0.902301
  H     -4.444414    5.377783    0.368497

 Total Charge           Charge          ....    1
 Multiplicity           Mult            ....    2
 Number of Electrons    NEL             ....  109
 Basis Dimension        Dim             ....  371

ORBITAL ENERGIES
----------------
                 SPIN UP ORBITALS
  NO   OCC          E(Eh)            E(eV)
   0   1.0000     -19.249501      -523.8055
   1   1.0000     -19.230692      -523.2937
   2   1.0000     -14.578952      -396.7134
   3   1.0000     -14.489835      -394.2885
   4   1.0000     -14.477219      -393.9452
   5   1.0000     -10.435210      -283.9565
   6   1.0000     -10.413891      -283.3764
   7   1.0000     -10.399771      -282.9921
   8   1.0000     -10.370270      -282.1894
   9   1.0000     -10.355392      -281.7846
  10   1.0000     -10.328779      -281.0604
  11   1.0000     -10.326579      -281.0005
  12   1.0000     -10.313969      -280.6574
  13   1.0000     -10.306555      -280.4556
  14   1.0000      -1.170015       -31.8377
  15   1.0000      -1.154337       -31.4111
  16   1.0000      -1.130910       -30.7736
  17   1.0000      -1.055781       -28.7292
  18   1.0000      -1.036390       -28.2016
  19   1.0000      -0.949043       -25.8248
  20   1.0000      -0.911537       -24.8042
  21   1.0000      -0.864634       -23.5279
  22   1.0000      -0.840970       -22.8840
  23   1.0000      -0.806217       -21.9383
  24   1.0000      -0.775188       -21.0939
  25   1.0000      -0.740971       -20.1628
  26   1.0000      -0.727818       -19.8049
  27   1.0000      -0.708274       -19.2731
  28   1.0000      -0.704999       -19.1840
  29   1.0000      -0.687362       -18.7041
  30   1.0000      -0.655235       -17.8299
  31   1.0000      -0.637557       -17.3488
  32   1.0000      -0.616134       -16.7659
  33   1.0000      -0.613715       -16.7000
  34   1.0000      -0.595773       -16.2118
  35   1.0000      -0.585060       -15.9203
  36   1.0000      -0.571603       -15.5541
  37   1.0000      -0.566656       -15.4195
  38   1.0000      -0.563035       -15.3210
  39   1.0000      -0.549055       -14.9405
  40   1.0000      -0.539539       -14.6816
  41   1.0000      -0.531423       -14.4608
  42   1.0000      -0.524463       -14.2714
  43   1.0000      -0.514183       -13.9916
  44   1.0000      -0.503757       -13.7079
  45   1.0000      -0.494264       -13.4496
  46   1.0000      -0.490314       -13.3421
  47   1.0000      -0.486314       -13.2333
  48   1.0000      -0.477636       -12.9971
  49   1.0000      -0.473407       -12.8821
  50   1.0000      -0.401499       -10.9253
  51   1.0000      -0.398769       -10.8511
  52   1.0000      -0.380886       -10.3644
  53   1.0000      -0.369785       -10.0624
  54   1.0000      -0.355929        -9.6853
  55   0.0000      -0.133580        -3.6349
  56   0.0000      -0.122267        -3.3270
  57   0.0000      -0.102346        -2.7850
  58   0.0000      -0.095876        -2.6089
  59   0.0000      -0.087132        -2.3710

                 SPIN DOWN ORBITALS
  NO   OCC          E(Eh)            E(eV)
   0   1.0000     -19.249495      -523.8054
   1   1.0000     -19.230673      -523.2932
   2   1.0000     -14.576954      -396.6591
   3   1.0000     -14.489833      -394.2884
   4   1.0000     -14.477186      -393.9442
   5   1.0000     -10.435191      -283.9560
   6   1.0000     -10.413902      -283.3767
   7   1.0000     -10.400604      -283.0148
   8   1.0000     -10.370103      -282.1848
   9   1.0000     -10.341915      -281.4178
  10   1.0000     -10.327452      -281.0243
  11   1.0000     -10.327268      -281.0192
  12   1.0000     -10.313971      -280.6574
  13   1.0000     -10.306556      -280.4556
  14   1.0000      -1.169911       -31.8349
  15   1.0000      -1.154274       -31.4094
  16   1.0000      -1.127331       -30.6762
  17   1.0000      -1.055654       -28.7258
  18   1.0000      -1.036319       -28.1997
  19   1.0000      -0.937436       -25.5089
  20   1.0000      -0.905278       -24.6339
  21   1.0000      -0.863248       -23.4902
  22   1.0000      -0.840225       -22.8637
  23   1.0000      -0.804202       -21.8835
  24   1.0000      -0.769969       -20.9519
  25   1.0000      -0.734671       -19.9914
  26   1.0000      -0.726430       -19.7672
  27   1.0000      -0.706490       -19.2246
  28   1.0000      -0.697151       -18.9705
  29   1.0000      -0.686005       -18.6672
  30   1.0000      -0.654938       -17.8218
  31   1.0000      -0.630604       -17.1596
  32   1.0000      -0.613018       -16.6811
  33   1.0000      -0.611909       -16.6509
  34   1.0000      -0.593707       -16.1556
  35   1.0000      -0.583729       -15.8841
  36   1.0000      -0.569555       -15.4984
  37   1.0000      -0.566204       -15.4072
  38   1.0000      -0.561390       -15.2762
  39   1.0000      -0.547077       -14.8867
  40   1.0000      -0.537199       -14.6179
  41   1.0000      -0.530496       -14.4355
  42   1.0000      -0.520307       -14.1583
  43   1.0000      -0.513735       -13.9794
  44   1.0000      -0.499378       -13.5888
  45   1.0000      -0.493802       -13.4370
  46   1.0000      -0.489620       -13.3232
  47   1.0000      -0.483739       -13.1632
  48   1.0000      -0.475935       -12.9509
  49   1.0000      -0.470937       -12.8148
  50   1.0000      -0.400561       -10.8998
  51   1.0000      -0.398503       -10.8438
  52   1.0000      -0.380751       -10.3608
  53   1.0000      -0.368943       -10.0395
  54   0.0000      -0.221241        -6.0203
  55   0.0000      -0.128267        -3.4903
  56   0.0000      -0.121433        -3.3044
  57   0.0000      -0.101716        -2.7678
  58   0.0000      -0.094378        -2.5682

MULLIKEN ATOMIC CHARGES AND SPIN POPULATIONS
--------------------------------------------
   0 N :   -0.062667    0.000102
   1 C :   -0.077512    0.005478
   2 C :    0.085069    0.000181
   3 O :   -0.316267    0.000635
   4 C :   -0.287182    0.053945
   5 C :   -0.243790   -0.063410
   6 C :   -0.088997    0.974248
   7 C :   -0.296474   -0.025747
   8 N :   -0.380270    0.056069
   9 H :    0.203307    0.002718
  10 H :    0.207674    0.017441
  11 H :    0.312624    0.006923
  12 H :    0.340841   -0.005260
  13 H :    0.271932   -0.000001
  14 C :    0.140990    0.001863
  15 N :   -0.093717    0.001231
  16 H :    0.235705   -0.000037
  17 O :   -0.374417   -0.000669
  18 H :    0.312731   -0.001953
  19 C :   -0.440726   -0.000096
  20 H :    0.184884    0.000118
  21 H :    0.168562    0.000061
  22 H :    0.203396    0.000002
  23 C :   -0.515415   -0.000076
  24 H :    0.177798    0.000027
  25 H :    0.204599    0.000065
  26 H :    0.170378    0.000003
  27 H :    0.172225    0.001425
  28 H :    0.154050   -0.001404
  29 H :    0.146254   -0.002911
  30 H :    0.171258    0.019933
  31 H :    0.152579    0.005612
  32 H :    0.160579   -0.046515
Sum of atomic charges         :    1.0000000

LOEWDIN ATOMIC CHARGES AND SPIN POPULATIONS
-------------------------------------------
   0 N :    0.098563    0.000133
   1 C :   -0.030732    0.006927
   2 C :   -0.097710    0.000022
   3 O :   -0.174719    0.000696
   4 C :   -0.047463    0.049793
   5 C :   -0.060217    0.008277
   6 C :   -0.017384    0.794728
   7 C :    0.002203    0.029573
   8 N :    0.303084    0.058494
   9 H :    0.057793    0.001485
  10 H :    0.064837    0.014226
  11 H :    0.109542    0.005168
  12 H :    0.097497    0.000212
  13 H :    0.105562   -0.000018
  14 C :   -0.072353    0.000978
  15 N :    0.051784    0.001227
  16 H :    0.082511    0.000000
  17 O :   -0.237168    0.000166
  18 H :    0.110697    0.001448
  19 C :    0.028816   -0.000003
  20 H :    0.040229    0.000078
  21 H :    0.037950    0.000043
  22 H :    0.056138   -0.000000
  23 C :   -0.019956    0.000019
  24 H :    0.055841    0.000009
  25 H :    0.067219    0.000056
  26 H :    0.045617    0.000001
  27 H :    0.070195    0.001407
  28 H :    0.050837   -0.000093
  29 H :    0.045575    0.000273
  30 H :    0.064498    0.015430
  31 H :    0.059269    0.004066
  32 H :    0.051446    0.005181

  Mayer bond orders larger than 0.100000
B(  0-N ,  1-C ) :   1.0208 B(  0-N , 13-H ) :   0.8701 B(  0-N , 14-C ) :   1.3389
B(  1-C ,  2-C ) :   0.9032 B(  1-C ,  4-C ) :   0.9667 B(  1-C , 27-H ) :   0.9438
B(  2-C ,  3-O ) :   1.8632 B(  2-C , 15-N ) :   1.2211 B(  4-C ,  5-C ) :   0.9442
B(  4-C , 28-H ) :   0.9696 B(  4-C , 29-H ) :   0.9610 B(  5-C ,  6-C ) :   1.0157
B(  5-C , 30-H ) :   0.9482 B(  5-C , 31-H ) :   0.9618 B(  6-C ,  7-C ) :   1.0117
B(  6-C , 32-H ) :   0.9696 B(  7-C ,  8-N ) :   0.8959 B(  7-C ,  9-H ) :   0.9525
B(  7-C , 10-H ) :   0.9491 B(  8-N , 11-H ) :   0.8993 B(  8-N , 12-H ) :   0.7284
B(  8-N , 18-H ) :   0.9020 B( 12-H , 17-O ) :   0.1855 B( 14-C , 17-O ) :   1.6406
B( 14-C , 23-C ) :   0.9380 B( 15-N , 16-H ) :   0.9262 B( 15-N , 19-C ) :   0.9564
B( 19-C , 20-H ) :   0.9534 B( 19-C , 21-H ) :   0.9577 B( 19-C , 22-H ) :   0.9443
B( 23-C , 24-H ) :   0.9537 B( 23-C , 25-H ) :   0.9440 B( 23-C , 26-H ) :   0.9692

FINAL SINGLE POINT ENERGY      -668.617121295424

DIPOLE MOMENT
-------------
                                X             Y             Z
Electronic contribution:     -1.55381      -3.72725      -0.46802
Nuclear contribution   :      2.52794       6.37397      -1.53277
                        -----------------------------------------
Total Dipole Moment    :      0.97413       2.64672      -2.00079
                        -----------------------------------------
Magnitude (a.u.)       :      3.45792
Magnitude (Debye)      :      8.78933

Rotational constants in cm-1:     0.031058     0.013705     0.010579
Rotational constants in MHz :   931.081764   410.874408   317.140280

CHEMICAL SHIELDING SUMMARY (ppm)  --  Orbital contribution
----------------------------------------------------------

  Nucleus  Element    Isotropic     Anisotropy
  -------  -------  ------------   ------------
      8       N          207.680         21.608
      9       H           27.919          8.386
     10       H           28.184          6.334
     11       H           28.345         14.786
     12       H           19.418         29.636
     18       H           28.944         11.907
     28       H           29.955          7.022
     29       H           29.549          4.695
     30       H           29.208          7.393
     31       H           29.933          3.197
     32       H           26.095          4.732

                             ****ORCA TERMINATED NORMALLY****
TOTAL RUN TIME: 0 days 0 hours 6 minutes 4 seconds 257 msec
