                         Program Version 5.0.4 -  RELEASE  -
|  1> ! M062X def2-TZVP OPT FREQ
|  2> %pal nprocs 16 end
|  3> *XYZFile 1 2 opt.xyz
|  4>
|  5>                          ****END OF INPUT****
 Total Charge           Charge          ....    1
 Multiplicity           Mult            ....    2
 Number of Electrons    NEL             ....  109
FINAL SINGLE POINT ENERGY      -668.835305808364
FINAL SINGLE POINT ENERGY      -668.804458182697
FINAL SINGLE POINT ENERGY      -668.832736801721
FINAL SINGLE POINT ENERGY      -668.832625297577
FINAL SINGLE POINT ENERGY      -668.838355683577
FINAL SINGLE POINT ENERGY      -668.837974894761
FINAL SINGLE POINT ENERGY      -668.838563004479
FINAL SINGLE POINT ENERGY      -668.838613431480
FINAL SINGLE POINT ENERGY      -668.838644821527
FINAL SINGLE POINT ENERGY      -668.838657342338
FINAL SINGLE POINT ENERGY      -668.838670844955
FINAL SINGLE POINT ENERGY      -668.838691438571
FINAL SINGLE POINT ENERGY      -668.838711249215
FINAL SINGLE POINT ENERGY      -668.838737005979
FINAL SINGLE POINT ENERGY      -668.838750818421
FINAL SINGLE POINT ENERGY      -668.838763444445
FINAL SINGLE POINT ENERGY      -668.838772596225
FINAL SINGLE POINT ENERGY      -668.838775221217
                    ***********************HURRAY********************

CARTESIAN COORDINATES (ANGSTROEM)
---------------------------------
  N     -7.606582    1.288543   -0.054757
  C     -6.180368    1.146672    0.180694
  C     -6.063224    0.548715    1.597511
  O     -7.042112    0.469726    2.313228
  C     -5.374344    2.446975    0.041709
  C     -5.975083    3.635103    0.817293
  C     -5.481223    4.941800    0.305312
  C     -6.284457    5.725924   -0.662860
  N     -6.374256    5.022450   -2.006868
  H     -5.869677    6.715112   -0.841282
  H     -7.320986    5.830073   -0.332971
  H     -6.919389    5.567947   -2.676013
  H     -6.849517    4.067930   -1.902259
  H     -8.171324    0.822375    0.647708
  C     -8.213744    2.008368   -0.992686
  N     -4.829974    0.158502    1.957788
  H     -4.100547    0.157975    1.264004
  O     -7.599127    2.723797   -1.802234
  H     -5.442860    4.881424   -2.398744
  C     -4.555962   -0.446404    3.251750
  H     -4.537190   -1.534035    3.181901
  H     -3.598616   -0.090856    3.626271
  H     -5.346285   -0.151439    3.936071
  C     -9.712427    1.924682   -1.046717
  H    -10.127119    2.921731   -0.899956
  H     -9.994533    1.595418   -2.046311
  H    -10.129421    1.243554   -0.309546
  H     -5.771582    0.422838   -0.531667
  H     -4.358686    2.262330    0.394535
  H     -5.296455    2.679298   -1.018349
  H     -5.736651    3.525929    1.878000
  H     -7.064671    3.604132    0.737830
  H     -4.519333    5.326310    0.613821

 Multiplicity           Mult            ....    2
 Number of Electrons    NEL             ....  109
 Basis Dimension        Dim             ....  548

ORBITAL ENERGIES
----------------
                 SPIN UP ORBITALS
  NO   OCC          E(Eh)            E(eV)
   0   1.0000     -19.737219      -537.0770
   1   1.0000     -19.714316      -536.4538
   2   1.0000     -14.998027      -408.1171
   3   1.0000     -14.908386      -405.6778
   4   1.0000     -14.891447      -405.2169
   5   1.0000     -10.786678      -293.5204
   6   1.0000     -10.763463      -292.8887
   7   1.0000     -10.750746      -292.5427
   8   1.0000     -10.721938      -291.7588
   9   1.0000     -10.704325      -291.2795
  10   1.0000     -10.681285      -290.6525
  11   1.0000     -10.676882      -290.5327
  12   1.0000     -10.666792      -290.2582
  13   1.0000     -10.657581      -290.0075
  14   1.0000      -1.305863       -35.5343
  15   1.0000      -1.289194       -35.0808
  16   1.0000      -1.247287       -33.9404
  17   1.0000      -1.175448       -31.9856
  18   1.0000      -1.153328       -31.3836
  19   1.0000      -1.059449       -28.8291
  20   1.0000      -1.018307       -27.7096
  21   1.0000      -0.966074       -26.2882
  22   1.0000      -0.941663       -25.6240
  23   1.0000      -0.901537       -24.5321
  24   1.0000      -0.867618       -23.6091
  25   1.0000      -0.827883       -22.5278
  26   1.0000      -0.815717       -22.1968
  27   1.0000      -0.792777       -21.5726
  28   1.0000      -0.788174       -21.4473
  29   1.0000      -0.774167       -21.0662
  30   1.0000      -0.740861       -20.1598
  31   1.0000      -0.717955       -19.5365
  32   1.0000      -0.700666       -19.0661
  33   1.0000      -0.695398       -18.9228
  34   1.0000      -0.674956       -18.3665
  35   1.0000      -0.665524       -18.1098
  36   1.0000      -0.654914       -17.8211
  37   1.0000      -0.647611       -17.6224
  38   1.0000      -0.639922       -17.4132
  39   1.0000      -0.624133       -16.9835
  40   1.0000      -0.612389       -16.6640
  41   1.0000      -0.607471       -16.5301
  42   1.0000      -0.601268       -16.3613
  43   1.0000      -0.584135       -15.8951
  44   1.0000      -0.573178       -15.5970
  45   1.0000      -0.565166       -15.3790
  46   1.0000      -0.561352       -15.2752
  47   1.0000      -0.558871       -15.2076
  48   1.0000      -0.546105       -14.8603
  49   1.0000      -0.541915       -14.7463
  50   1.0000      -0.481360       -13.0985
  51   1.0000      -0.470437       -12.8012
  52   1.0000      -0.458032       -12.4637
  53   1.0000      -0.436260       -11.8712
  54   1.0000      -0.410824       -11.1791
  55   0.0000      -0.101068        -2.7502
  56   0.0000      -0.082849        -2.2544
  57   0.0000      -0.063681        -1.7329
  58   0.0000      -0.058035        -1.5792
  59   0.0000      -0.053733        -1.4621

                 SPIN DOWN ORBITALS
  NO   OCC          E(Eh)            E(eV)
   0   1.0000     -19.737224      -537.0772
   1   1.0000     -19.714296      -536.4533
   2   1.0000     -14.996581      -408.0777
   3   1.0000     -14.908386      -405.6778
   4   1.0000     -14.891433      -405.2165
   5   1.0000     -10.786673      -293.5203
   6   1.0000     -10.763471      -292.8889
   7   1.0000     -10.751434      -292.5614
   8   1.0000     -10.721836      -291.7560
   9   1.0000     -10.697740      -291.1003
  10   1.0000     -10.680310      -290.6260
  11   1.0000     -10.677503      -290.5496
  12   1.0000     -10.666793      -290.2582
  13   1.0000     -10.657581      -290.0075
  14   1.0000      -1.305807       -35.5328
  15   1.0000      -1.289142       -35.0793
  16   1.0000      -1.243251       -33.8306
  17   1.0000      -1.175302       -31.9816
  18   1.0000      -1.153270       -31.3821
  19   1.0000      -1.047414       -28.5016
  20   1.0000      -1.009814       -27.4784
  21   1.0000      -0.964226       -26.2379
  22   1.0000      -0.940833       -25.6014
  23   1.0000      -0.899329       -24.4720
  24   1.0000      -0.861969       -23.4554
  25   1.0000      -0.818787       -22.2803
  26   1.0000      -0.813726       -22.1426
  27   1.0000      -0.792259       -21.5585
  28   1.0000      -0.778726       -21.1902
  29   1.0000      -0.771655       -20.9978
  30   1.0000      -0.740486       -20.1496
  31   1.0000      -0.711520       -19.3614
  32   1.0000      -0.698327       -19.0024
  33   1.0000      -0.688997       -18.7486
  34   1.0000      -0.671796       -18.2805
  35   1.0000      -0.663810       -18.0632
  36   1.0000      -0.653165       -17.7735
  37   1.0000      -0.646685       -17.5972
  38   1.0000      -0.636688       -17.3252
  39   1.0000      -0.622401       -16.9364
  40   1.0000      -0.610040       -16.6000
  41   1.0000      -0.604597       -16.4519
  42   1.0000      -0.595923       -16.2159
  43   1.0000      -0.583541       -15.8790
  44   1.0000      -0.569953       -15.5092
  45   1.0000      -0.564670       -15.3655
  46   1.0000      -0.560823       -15.2608
  47   1.0000      -0.554455       -15.0875
  48   1.0000      -0.542275       -14.7561
  49   1.0000      -0.540163       -14.6986
  50   1.0000      -0.481189       -13.0938
  51   1.0000      -0.468932       -12.7603
  52   1.0000      -0.457823       -12.4580
  53   1.0000      -0.435549       -11.8519
  54   0.0000      -0.180004        -4.8982
  55   0.0000      -0.097772        -2.6605
  56   0.0000      -0.083133        -2.2622
  57   0.0000      -0.068381        -1.8607
  58   0.0000      -0.059808        -1.6274

MULLIKEN ATOMIC CHARGES AND SPIN POPULATIONS
--------------------------------------------
   0 N :   -0.333013   -0.001092
   1 C :   -0.088352    0.012454
   2 C :    0.370188   -0.002522
   3 O :   -0.394494    0.001111
   4 C :   -0.315636    0.038810
   5 C :   -0.352761   -0.074015
   6 C :   -0.178944    1.015414
   7 C :   -0.237394   -0.054206
   8 N :   -0.380270    0.045798
   9 H :    0.201562    0.005484
  10 H :    0.222315    0.026625
  11 H :    0.315450    0.008274
  12 H :    0.363547   -0.007690
  13 H :    0.291905    0.000077
  14 C :    0.457747    0.000742
  15 N :   -0.356289    0.001010
  16 H :    0.254036    0.000055
  17 O :   -0.569924   -0.000063
  18 H :    0.311878   -0.000233
  19 C :   -0.306079   -0.000029
  20 H :    0.167448    0.000040
  21 H :    0.156289    0.000026
  22 H :    0.185163    0.000000
  23 C :   -0.422920    0.000564
  24 H :    0.158015   -0.000115
  25 H :    0.183530    0.000050
  26 H :    0.156995   -0.000003
  27 H :    0.206689    0.000641
  28 H :    0.179947   -0.001719
  29 H :    0.157163   -0.004252
  30 H :    0.194012    0.018751
  31 H :    0.194711    0.006721
  32 H :    0.207486   -0.036709
Sum of atomic charges         :    1.0000000

LOEWDIN ATOMIC CHARGES AND SPIN POPULATIONS
-------------------------------------------
   0 N :    0.185211    0.000216
   1 C :   -0.225827    0.006559
   2 C :   -0.446687    0.000221
   3 O :    0.074023    0.000793
   4 C :   -0.236477    0.039270
   5 C :   -0.259154    0.052727
   6 C :   -0.107757    0.738379
   7 C :   -0.267864    0.078927
   8 N :    0.132342    0.040454
   9 H :    0.150776    0.000087
  10 H :    0.156122    0.015795
  11 H :    0.203070    0.005027
  12 H :    0.185612    0.000760
  13 H :    0.214117    0.000017
  14 C :   -0.447007    0.000614
  15 N :    0.107235    0.000592
  16 H :    0.189450    0.000001
  17 O :   -0.008131   -0.000009
  18 H :    0.200407    0.003651
  19 C :   -0.284028    0.000045
  20 H :    0.123577    0.000030
  21 H :    0.122202    0.000017
  22 H :    0.136003   -0.000002
  23 C :   -0.239709    0.000072
  24 H :    0.142953    0.000011
  25 H :    0.151483    0.000022
  26 H :    0.134674   -0.000004
  27 H :    0.169760    0.000677
  28 H :    0.147539    0.000004
  29 H :    0.136125    0.001494
  30 H :    0.161243    0.010986
  31 H :    0.154393    0.004226
  32 H :    0.144324   -0.001658

  Mayer bond orders larger than 0.100000
B(  0-N ,  1-C ) :   0.8949 B(  0-N , 13-H ) :   0.8686 B(  0-N , 14-C ) :   1.3346
B(  1-C ,  2-C ) :   0.9542 B(  1-C ,  4-C ) :   0.8931 B(  1-C , 27-H ) :   0.9748
B(  2-C ,  3-O ) :   1.8904 B(  2-C , 15-N ) :   1.2481 B(  4-C ,  5-C ) :   0.8438
B(  4-C , 28-H ) :   0.9660 B(  4-C , 29-H ) :   0.9777 B(  5-C ,  6-C ) :   0.9322
B(  5-C , 30-H ) :   0.9519 B(  5-C , 31-H ) :   0.9853 B(  6-C ,  7-C ) :   0.9881
B(  6-C , 32-H ) :   0.9599 B(  7-C ,  8-N ) :   0.8139 B(  7-C ,  9-H ) :   0.9719
B(  7-C , 10-H ) :   0.9648 B(  8-N , 11-H ) :   0.8871 B(  8-N , 12-H ) :   0.7461
B(  8-N , 18-H ) :   0.8861 B( 12-H , 17-O ) :   0.1656 B( 14-C , 17-O ) :   1.5450
B( 14-C , 23-C ) :   0.9368 B( 15-N , 16-H ) :   0.9143 B( 15-N , 19-C ) :   0.8935
B( 19-C , 20-H ) :   0.9667 B( 19-C , 21-H ) :   0.9637 B( 19-C , 22-H ) :   0.9602
B( 23-C , 24-H ) :   0.9443 B( 23-C , 25-H ) :   0.9486 B( 23-C , 26-H ) :   0.9894

FINAL SINGLE POINT ENERGY      -668.838776866405

DIPOLE MOMENT
-------------
                                X             Y             Z
Electronic contribution:     -1.67631      -3.84465      -0.52481
Nuclear contribution   :      2.74118       6.41424      -1.49383
                        -----------------------------------------
Total Dipole Moment    :      1.06487       2.56959      -2.01865
                        -----------------------------------------
Magnitude (a.u.)       :      3.43681
Magnitude (Debye)      :      8.73568

VIBRATIONAL FREQUENCIES
-----------------------

Scaling factor for frequencies =  1.000000000  (already applied!)

   0:         0.00 cm**-1
   1:         0.00 cm**-1
   2:         0.00 cm**-1
   3:         0.00 cm**-1
   4:         0.00 cm**-1
   5:         0.00 cm**-1
   6:        15.20 cm**-1
   7:        42.06 cm**-1
   8:        54.52 cm**-1
   9:        62.50 cm**-1
  10:        78.38 cm**-1
  11:       101.63 cm**-1
  12:       114.07 cm**-1
  13:       132.86 cm**-1
  14:       142.21 cm**-1
  15:       175.30 cm**-1
  16:       232.93 cm**-1
  17:       249.63 cm**-1
  18:       263.53 cm**-1
  19:       273.55 cm**-1
  20:       301.70 cm**-1
  21:       315.42 cm**-1
  22:       339.38 cm**-1
  23:       360.08 cm**-1
  24:       401.62 cm**-1
  25:       426.21 cm**-1
  26:       465.12 cm**-1
  27:       498.13 cm**-1
  28:       530.72 cm**-1
  29:       575.32 cm**-1
  30:       622.39 cm**-1
  31:       665.14 cm**-1
  32:       698.95 cm**-1
  33:       720.83 cm**-1
  34:       775.83 cm**-1
  35:       811.61 cm**-1
  36:       868.70 cm**-1
  37:       876.48 cm**-1
  38:       888.02 cm**-1
  39:       922.33 cm**-1
  40:       954.63 cm**-1
  41:      1007.89 cm**-1
  42:      1025.63 cm**-1
  43:      1047.11 cm**-1
  44:      1062.15 cm**-1
  45:      1072.22 cm**-1
  46:      1079.16 cm**-1
  47:      1082.53 cm**-1
  48:      1139.53 cm**-1
  49:      1156.79 cm**-1
  50:      1170.62 cm**-1
  51:      1180.71 cm**-1
  52:      1195.21 cm**-1
  53:      1237.32 cm**-1
  54:      1263.41 cm**-1
  55:      1268.24 cm**-1
  56:      1313.72 cm**-1
  57:      1320.29 cm**-1
  58:      1344.38 cm**-1
  59:      1350.97 cm**-1
  60:      1389.78 cm**-1
  61:      1397.58 cm**-1
  62:      1399.55 cm**-1
  63:      1417.37 cm**-1
  64:      1426.61 cm**-1
  65:      1454.82 cm**-1
  66:      1473.80 cm**-1
  67:      1484.38 cm**-1
  68:      1490.38 cm**-1
  69:      1493.61 cm**-1
  70:      1497.90 cm**-1
  71:      1501.26 cm**-1
  72:      1510.53 cm**-1
  73:      1550.25 cm**-1
  74:      1587.39 cm**-1
  75:      1603.79 cm**-1
  76:      1643.26 cm**-1
  77:      1650.47 cm**-1
  78:      1690.84 cm**-1
  79:      1798.50 cm**-1
  80:      2549.22 cm**-1
  81:      3069.34 cm**-1
  82:      3074.84 cm**-1
  83:      3085.43 cm**-1
  84:      3089.58 cm**-1
  85:      3091.53 cm**-1
  86:      3106.82 cm**-1
  87:      3122.66 cm**-1
  88:      3160.02 cm**-1
  89:      3165.38 cm**-1
  90:      3167.85 cm**-1
  91:      3170.40 cm**-1
  92:      3195.14 cm**-1
  93:      3202.63 cm**-1
  94:      3228.51 cm**-1
  95:      3457.75 cm**-1
  96:      3527.68 cm**-1
  97:      3543.38 cm**-1
  98:      3647.30 cm**-1

IR SPECTRUM
-----------

 Mode   freq       eps      Int      T**2         TX        TY        TZ
       cm**-1   L/(mol*cm) km/mol    a.u.
----------------------------------------------------------------------------
  6:     15.20   0.000209    1.06  0.004293  (-0.032093 -0.047593 -0.031588)
  7:     42.06   0.001038    5.25  0.007704  ( 0.041845  0.068679  0.035161)
  8:     54.52   0.000569    2.87  0.003255  ( 0.022733  0.049302 -0.017522)
  9:     62.50   0.001641    8.29  0.008191  ( 0.075261 -0.048552 -0.013030)
 10:     78.38   0.000277    1.40  0.001102  ( 0.021403 -0.002082  0.025299)
 11:    101.63   0.001506    7.61  0.004624  (-0.035618  0.052946  0.023491)
 12:    114.07   0.000610    3.08  0.001669  (-0.032878  0.008106  0.022861)
 13:    132.86   0.004163   21.04  0.009777  (-0.002085  0.052735 -0.083616)
 14:    142.21   0.000347    1.75  0.000760  (-0.003115 -0.012820 -0.024214)
 15:    175.30   0.000737    3.72  0.001312  ( 0.012271 -0.007783  0.033182)
 16:    232.93   0.000576    2.91  0.000772  (-0.018870  0.012697  0.015953)
 17:    249.63   0.016228   82.01  0.020286  (-0.070901 -0.123523 -0.001199)
 18:    263.53   0.001601    8.09  0.001895  (-0.014050  0.026255 -0.031758)
 19:    273.55   0.005245   26.50  0.005983  (-0.007846 -0.075272  0.015981)
 20:    301.70   0.000059    0.30  0.000061  ( 0.004128 -0.003474  0.005626)
 21:    315.42   0.000884    4.47  0.000875  ( 0.014427 -0.023988  0.009540)
 22:    339.38   0.004702   23.76  0.004323  (-0.017775  0.059445 -0.021764)
 23:    360.08   0.000432    2.18  0.000374  ( 0.013224  0.014115 -0.000368)
 24:    401.62   0.004049   20.46  0.003146  (-0.042388 -0.017671 -0.032209)
 25:    426.21   0.002375   12.00  0.001739  ( 0.009333 -0.033220 -0.023407)
 26:    465.12   0.012473   63.03  0.008369  ( 0.039187  0.080662 -0.018075)
 27:    498.13   0.007294   36.86  0.004570  ( 0.003373  0.057935  0.034668)
 28:    530.72   0.007524   38.02  0.004424  ( 0.046976  0.029477  0.036723)
 29:    575.32   0.002140   10.82  0.001161  ( 0.032894  0.007777 -0.004304)
 30:    622.39   0.004638   23.44  0.002325  (-0.003815 -0.044235 -0.018813)
 31:    665.14   0.001479    7.48  0.000694  ( 0.006216  0.011666  0.022789)
 32:    698.95   0.002339   11.82  0.001044  ( 0.017976  0.018212  0.019738)
 33:    720.83   0.006159   31.13  0.002666  ( 0.009122  0.040398  0.030841)
 34:    775.83   0.000848    4.28  0.000341  (-0.008976  0.002080 -0.016001)
 35:    811.61   0.000656    3.32  0.000252  (-0.010968  0.007208 -0.008947)
 36:    868.70   0.003449   17.43  0.001239  (-0.002923 -0.017873  0.030181)
 37:    876.48   0.000176    0.89  0.000063  (-0.005612 -0.005428 -0.001332)
 38:    888.02   0.002457   12.42  0.000863  ( 0.018121  0.015767  0.016922)
 39:    922.33   0.000799    4.04  0.000270  (-0.015109 -0.000417 -0.006472)
 40:    954.63   0.001109    5.60  0.000363  ( 0.012126 -0.011419 -0.009226)
 41:   1007.89   0.002763   13.96  0.000855  (-0.011818  0.022347 -0.014710)
 42:   1025.63   0.004459   22.53  0.001357  ( 0.006920  0.026275 -0.024869)
 43:   1047.11   0.001784    9.02  0.000532  (-0.004436 -0.017869  0.013886)
 44:   1062.15   0.001885    9.53  0.000554  (-0.011573 -0.004849 -0.019912)
 45:   1072.22   0.000940    4.75  0.000273  ( 0.001194 -0.013887 -0.008900)
 46:   1079.16   0.000993    5.02  0.000287  (-0.014734  0.007215 -0.004240)
 47:   1082.53   0.003154   15.94  0.000909  (-0.013498  0.026954  0.000740)
 48:   1139.53   0.000234    1.18  0.000064  (-0.003285  0.007114 -0.001642)
 49:   1156.79   0.002018   10.20  0.000544  (-0.019661  0.006652 -0.010658)
 50:   1170.62   0.000688    3.48  0.000183  (-0.007833  0.006269 -0.009101)
 51:   1180.71   0.003898   19.70  0.001030  ( 0.024116 -0.016617  0.013137)
 52:   1195.21   0.003124   15.79  0.000816  ( 0.016409 -0.018015  0.014899)
 53:   1237.32   0.000298    1.51  0.000075  (-0.005887  0.005478 -0.003241)
 54:   1263.41   0.002989   15.10  0.000738  ( 0.017043 -0.014611  0.015305)
 55:   1268.24   0.016130   81.51  0.003969  (-0.025830  0.027826 -0.050274)
 56:   1313.72   0.006794   34.33  0.001614  (-0.005711 -0.033632  0.021215)
 57:   1320.29   0.000373    1.89  0.000088  (-0.007939 -0.003288 -0.003793)
 58:   1344.38   0.000556    2.81  0.000129  (-0.003380 -0.008817  0.006315)
 59:   1350.97   0.002501   12.64  0.000578  (-0.017461  0.007507 -0.014713)
 60:   1389.78   0.000576    2.91  0.000129  (-0.004532 -0.009622  0.004028)
 61:   1397.58   0.001719    8.69  0.000384  (-0.005744  0.005552 -0.017887)
 62:   1399.55   0.002796   14.13  0.000623  (-0.017714  0.014257 -0.010313)
 63:   1417.37   0.003086   15.60  0.000679  (-0.024327  0.002740 -0.008954)
 64:   1426.61   0.001189    6.01  0.000260  (-0.011376 -0.005617 -0.009953)
 65:   1454.82   0.004000   20.21  0.000858  ( 0.023323 -0.016158 -0.007272)
 66:   1473.80   0.002050   10.36  0.000434  (-0.000483  0.015804  0.013569)
 67:   1484.38   0.003389   17.13  0.000712  (-0.012867 -0.020075  0.011994)
 68:   1490.38   0.015178   76.70  0.003178  ( 0.006559 -0.035623  0.043197)
 69:   1493.61   0.002066   10.44  0.000432  (-0.012673 -0.006852  0.014974)
 70:   1497.90   0.003463   17.50  0.000721  (-0.017792 -0.005968 -0.019217)
 71:   1501.26   0.003845   19.43  0.000799  ( 0.025110 -0.011691 -0.005666)
 72:   1510.53   0.003807   19.24  0.000787  (-0.000236  0.020095 -0.019562)
 73:   1550.25   0.026511  133.98  0.005337  ( 0.000070 -0.005592  0.072838)
 74:   1587.39   0.088122  445.33  0.017324  ( 0.093129 -0.064773  0.066748)
 75:   1603.79   0.044381  224.29  0.008636  (-0.076778  0.027884 -0.044309)
 76:   1643.26   0.004474   22.61  0.000850  (-0.014657 -0.023075  0.010122)
 77:   1650.47   0.007739   39.11  0.001463  (-0.032896 -0.017653  0.008336)
 78:   1690.84   0.121107  612.02  0.022352  (-0.048043 -0.113660  0.084409)
 79:   1798.50   0.045834  231.63  0.007953  (-0.085413  0.011436  0.022949)
 80:   2549.22   0.345611  1746.58  0.042308  ( 0.089315  0.182542 -0.031771)
 81:   3069.34   0.001658    8.38  0.000169  ( 0.009419 -0.008480  0.002823)
 82:   3074.84   0.000344    1.74  0.000035  ( 0.004583 -0.000047 -0.003727)
 83:   3085.43   0.000542    2.74  0.000055  (-0.006239  0.003973 -0.000237)
 84:   3089.58   0.004366   22.06  0.000441  ( 0.011535 -0.012277  0.012537)
 85:   3091.53   0.000168    0.85  0.000017  (-0.002778 -0.001041 -0.002854)
 86:   3106.82   0.001915    9.68  0.000192  (-0.012809  0.001781  0.005015)
 87:   3122.66   0.001334    6.74  0.000133  (-0.011088  0.003195  0.000366)
 88:   3160.02   0.002581   13.04  0.000255  ( 0.003001 -0.008513  0.013169)
 89:   3165.38   0.001142    5.77  0.000113  ( 0.006815  0.007386  0.003403)
 90:   3167.85   0.000050    0.25  0.000005  ( 0.001006 -0.000775  0.001826)
 91:   3170.40   0.000113    0.57  0.000011  (-0.000272 -0.003298  0.000373)
 92:   3195.14   0.000333    1.68  0.000033  (-0.003439 -0.003893  0.002362)
 93:   3202.63   0.000019    0.10  0.000002  (-0.000518  0.000413 -0.001190)
 94:   3228.51   0.000146    0.74  0.000014  (-0.001684 -0.002941  0.001628)
 95:   3457.75   0.014859   75.09  0.001341  ( 0.007955  0.020393 -0.029357)
 96:   3527.68   0.013819   69.84  0.001222  (-0.031792  0.013872 -0.004389)
 97:   3543.38   0.033088  167.21  0.002914  ( 0.002547  0.030903 -0.044188)
 98:   3647.30   0.009694   48.99  0.000829  (-0.026262  0.005567  0.010429)

--------------------------
THERMOCHEMISTRY AT 298.15K
--------------------------

Temperature         ... 298.15 K
Pressure            ... 1.00 atm
Total Mass          ... 201.27 AMU

Throughout the following assumptions are being made:
  (1) The electronic state is orbitally nondegenerate
      but the spin degeneracy is treated
  (2) There are no thermally accessible electronically excited states
  (3) Hindered rotations indicated by low frequency modes are not
      treated as such but are treated as vibrations and this may
      cause some error
  (4) All equations used are the standard statistical mechanics
      equations for an ideal gas
  (5) All vibrations are strictly harmonic

freq.      15.20  E(vib)   ...       0.57
freq.      42.06  E(vib)   ...       0.53
freq.      54.52  E(vib)   ...       0.52
freq.      62.50  E(vib)   ...       0.51
freq.      78.38  E(vib)   ...       0.49
freq.     101.63  E(vib)   ...       0.46
freq.     114.07  E(vib)   ...       0.44
freq.     132.86  E(vib)   ...       0.42
freq.     142.21  E(vib)   ...       0.41
freq.     175.30  E(vib)   ...       0.38
freq.     232.93  E(vib)   ...       0.32
freq.     249.63  E(vib)   ...       0.31
freq.     263.53  E(vib)   ...       0.29
freq.     273.55  E(vib)   ...       0.29
freq.     301.70  E(vib)   ...       0.26
freq.     315.42  E(vib)   ...       0.25
freq.     339.38  E(vib)   ...       0.23
freq.     360.08  E(vib)   ...       0.22
freq.     401.62  E(vib)   ...       0.19
freq.     426.21  E(vib)   ...       0.18
freq.     465.12  E(vib)   ...       0.16
freq.     498.13  E(vib)   ...       0.14
freq.     530.72  E(vib)   ...       0.13
freq.     575.32  E(vib)   ...       0.11
freq.     622.39  E(vib)   ...       0.09
freq.     665.14  E(vib)   ...       0.08
freq.     698.95  E(vib)   ...       0.07
freq.     720.83  E(vib)   ...       0.07
freq.     775.83  E(vib)   ...       0.05
freq.     811.61  E(vib)   ...       0.05
freq.     868.70  E(vib)   ...       0.04
freq.     876.48  E(vib)   ...       0.04
freq.     888.02  E(vib)   ...       0.04
freq.     922.33  E(vib)   ...       0.03
freq.     954.63  E(vib)   ...       0.03
freq.    1007.89  E(vib)   ...       0.02
freq.    1025.63  E(vib)   ...       0.02
freq.    1047.11  E(vib)   ...       0.02
freq.    1062.15  E(vib)   ...       0.02
freq.    1072.22  E(vib)   ...       0.02
freq.    1079.16  E(vib)   ...       0.02
freq.    1082.53  E(vib)   ...       0.02
freq.    1139.53  E(vib)   ...       0.01
freq.    1156.79  E(vib)   ...       0.01
freq.    1170.62  E(vib)   ...       0.01
freq.    1180.71  E(vib)   ...       0.01
freq.    1195.21  E(vib)   ...       0.01
freq.    1237.32  E(vib)   ...       0.01
freq.    1263.41  E(vib)   ...       0.01
freq.    1268.24  E(vib)   ...       0.01
freq.    1313.72  E(vib)   ...       0.01
freq.    1320.29  E(vib)   ...       0.01
freq.    1344.38  E(vib)   ...       0.01
freq.    1350.97  E(vib)   ...       0.01
freq.    1389.78  E(vib)   ...       0.00
freq.    1397.58  E(vib)   ...       0.00
freq.    1399.55  E(vib)   ...       0.00
freq.    1417.37  E(vib)   ...       0.00
freq.    1426.61  E(vib)   ...       0.00
freq.    1454.82  E(vib)   ...       0.00
freq.    1473.80  E(vib)   ...       0.00
freq.    1484.38  E(vib)   ...       0.00
freq.    1490.38  E(vib)   ...       0.00
freq.    1493.61  E(vib)   ...       0.00
freq.    1497.90  E(vib)   ...       0.00
freq.    1501.26  E(vib)   ...       0.00
freq.    1510.53  E(vib)   ...       0.00
freq.    1550.25  E(vib)   ...       0.00
freq.    1587.39  E(vib)   ...       0.00
freq.    1603.79  E(vib)   ...       0.00
freq.    1643.26  E(vib)   ...       0.00
freq.    1650.47  E(vib)   ...       0.00
freq.    1690.84  E(vib)   ...       0.00
freq.    1798.50  E(vib)   ...       0.00
freq.    2549.22  E(vib)   ...       0.00
freq.    3069.34  E(vib)   ...       0.00
freq.    3074.84  E(vib)   ...       0.00
freq.    3085.43  E(vib)   ...       0.00
freq.    3089.58  E(vib)   ...       0.00
freq.    3091.53  E(vib)   ...       0.00
freq.    3106.82  E(vib)   ...       0.00
freq.    3122.66  E(vib)   ...       0.00
freq.    3160.02  E(vib)   ...       0.00
freq.    3165.38  E(vib)   ...       0.00
freq.    3167.85  E(vib)   ...       0.00
freq.    3170.40  E(vib)   ...       0.00
freq.    3195.14  E(vib)   ...       0.00
freq.    3202.63  E(vib)   ...       0.00
freq.    3228.51  E(vib)   ...       0.00
freq.    3457.75  E(vib)   ...       0.00
freq.    3527.68  E(vib)   ...       0.00
freq.    3543.38  E(vib)   ...       0.00
freq.    3647.30  E(vib)   ...       0.00

------------
INNER ENERGY
------------

The inner energy is: U= E(el) + E(ZPE) + E(vib) + E(rot) + E(trans)
    E(el)   - is the total energy from the electronic structure calculation
              = E(kin-el) + E(nuc-el) + E(el-el) + E(nuc-nuc)
    E(ZPE)  - the the zero temperature vibrational energy from the frequency calculation
    E(vib)  - the the finite temperature correction to E(ZPE) due to population
              of excited vibrational states
    E(rot)  - is the rotational thermal energy
    E(trans)- is the translational thermal energy

Summary of contributions to the inner energy U:
Electronic energy                ...   -668.83877687 Eh
Zero point energy                ...      0.29249950 Eh     183.55 kcal/mol
Thermal vibrational correction   ...      0.01385829 Eh       8.70 kcal/mol
Thermal rotational correction    ...      0.00141627 Eh       0.89 kcal/mol
Thermal translational correction ...      0.00141627 Eh       0.89 kcal/mol
-----------------------------------------------------------------------
Total thermal energy                   -668.52958653 Eh

Summary of corrections to the electronic energy:
(perhaps to be used in another calculation)
Total thermal correction                  0.01669083 Eh      10.47 kcal/mol
Non-thermal (ZPE) correction              0.29249950 Eh     183.55 kcal/mol
-----------------------------------------------------------------------
Total correction                          0.30919033 Eh     194.02 kcal/mol

--------
ENTHALPY
--------

The enthalpy is H = U + kB*T
                kB is Boltzmann's constant
Total free energy                 ...   -668.52958653 Eh
Thermal Enthalpy correction       ...      0.00094421 Eh       0.59 kcal/mol
-----------------------------------------------------------------------
Total Enthalpy                    ...   -668.52864233 Eh

Note: Only C1 symmetry has been detected, increase convergence thresholds
      if your molecule has a higher symmetry. Symmetry factor of 1.0 is
      used for the rotational entropy correction.

Note: Rotational entropy computed according to Herzberg

Rotational constants in cm-1:     0.030859     0.014355     0.010919

                             ****ORCA TERMINATED NORMALLY****
TOTAL RUN TIME: 0 days 0 hours 35 minutes 58 seconds 667 msec
