                         Program Version 5.0.4 -  RELEASE  -
|  1> ! B3LYP EPR-II OPT
|  2> %pal nprocs 16 end
|  3> *XYZFile 1 2 model.xyz
|  4>
|  5>                          ****END OF INPUT****
 Total Charge           Charge          ....    1
 Multiplicity           Mult            ....    2
 Number of Electrons    NEL             ....  109
FINAL SINGLE POINT ENERGY      -668.615851619674
FINAL SINGLE POINT ENERGY      -668.611313655236
FINAL SINGLE POINT ENERGY      -668.603003434904
FINAL SINGLE POINT ENERGY      -668.616320054957
FINAL SINGLE POINT ENERGY      -668.617351590726
FINAL SINGLE POINT ENERGY      -668.615825811322
FINAL SINGLE POINT ENERGY      -668.617554666889
FINAL SINGLE POINT ENERGY      -668.617585849368
FINAL SINGLE POINT ENERGY      -668.617593882303
FINAL SINGLE POINT ENERGY      -668.617602846121
FINAL SINGLE POINT ENERGY      -668.617646421968
FINAL SINGLE POINT ENERGY      -668.617661607649
FINAL SINGLE POINT ENERGY      -668.617676082525
FINAL SINGLE POINT ENERGY      -668.617688122559
FINAL SINGLE POINT ENERGY      -668.617697511116
FINAL SINGLE POINT ENERGY      -668.617706846004
FINAL SINGLE POINT ENERGY      -668.617716778896
FINAL SINGLE POINT ENERGY      -668.617725564122
FINAL SINGLE POINT ENERGY      -668.617728877104
                    ***********************HURRAY********************

CARTESIAN COORDINATES (ANGSTROEM)
---------------------------------
  N     -7.570114    1.332167   -0.035866
  C     -6.139711    1.163604    0.220474
  C     -6.068007    0.529956    1.641703
  O     -7.079422    0.467331    2.341866
  C     -5.291966    2.455937    0.081203
  C     -5.850617    3.690407    0.856911
  C     -5.449205    4.989859    0.221013
  C     -6.370739    5.753442   -0.676785
  N     -6.509954    5.104760   -2.068554
  H     -6.027754    6.776332   -0.843237
  H     -7.391589    5.779898   -0.281852
  H     -7.126802    5.658789   -2.668456
  H     -6.919542    4.116984   -1.991081
  H     -8.139377    0.905527    0.693199
  C     -8.169706    2.017355   -1.022761
  N     -4.846174    0.082959    2.023164
  H     -4.102475    0.070350    1.340557
  O     -7.535793    2.695916   -1.870463
  H     -5.599613    5.043062   -2.529114
  C     -4.612289   -0.587448    3.305866
  H     -4.588518   -1.674906    3.183079
  H     -3.663821   -0.250297    3.730304
  H     -5.426334   -0.327738    3.981823
  C     -9.682107    1.920477   -1.093286
  H    -10.109504    2.925853   -1.136331
  H     -9.945042    1.413845   -2.027131
  H    -10.120200    1.372662   -0.256970
  H     -5.735463    0.435617   -0.496525
  H     -4.274206    2.242225    0.421040
  H     -5.223769    2.679326   -0.983999
  H     -5.490728    3.656029    1.891616
  H     -6.942778    3.624837    0.902301
  H     -4.444414    5.377783    0.368497

 Multiplicity           Mult            ....    2
 Number of Electrons    NEL             ....  109
 Basis Dimension        Dim             ....  371

ORBITAL ENERGIES
----------------
                 SPIN UP ORBITALS
  NO   OCC          E(Eh)            E(eV)
   0   1.0000     -19.249382      -523.8023
   1   1.0000     -19.230803      -523.2968
   2   1.0000     -14.578867      -396.7111
   3   1.0000     -14.489795      -394.2874
   4   1.0000     -14.477103      -393.9420
   5   1.0000     -10.435170      -283.9554
   6   1.0000     -10.413763      -283.3729
   7   1.0000     -10.399702      -282.9903
   8   1.0000     -10.370220      -282.1880
   9   1.0000     -10.355341      -281.7832
  10   1.0000     -10.328716      -281.0587
  11   1.0000     -10.326525      -280.9990
  12   1.0000     -10.313928      -280.6562
  13   1.0000     -10.306497      -280.4541
  14   1.0000      -1.170012       -31.8377
  15   1.0000      -1.154386       -31.4124
  16   1.0000      -1.130906       -30.7735
  17   1.0000      -1.055779       -28.7292
  18   1.0000      -1.036371       -28.2011
  19   1.0000      -0.949035       -25.8246
  20   1.0000      -0.911526       -24.8039
  21   1.0000      -0.864623       -23.5276
  22   1.0000      -0.840956       -22.8836
  23   1.0000      -0.806194       -21.9376
  24   1.0000      -0.775175       -21.0936
  25   1.0000      -0.740965       -20.1627
  26   1.0000      -0.727813       -19.8048
  27   1.0000      -0.708259       -19.2727
  28   1.0000      -0.704977       -19.1834
  29   1.0000      -0.687342       -18.7035
  30   1.0000      -0.655209       -17.8291
  31   1.0000      -0.637539       -17.3483
  32   1.0000      -0.616127       -16.7657
  33   1.0000      -0.613710       -16.6999
  34   1.0000      -0.595756       -16.2113
  35   1.0000      -0.585055       -15.9202
  36   1.0000      -0.571605       -15.5542
  37   1.0000      -0.566656       -15.4195
  38   1.0000      -0.563028       -15.3208
  39   1.0000      -0.549047       -14.9403
  40   1.0000      -0.539533       -14.6814
  41   1.0000      -0.531418       -14.4606
  42   1.0000      -0.524471       -14.2716
  43   1.0000      -0.514183       -13.9916
  44   1.0000      -0.503754       -13.7079
  45   1.0000      -0.494252       -13.4493
  46   1.0000      -0.490320       -13.3423
  47   1.0000      -0.486318       -13.2334
  48   1.0000      -0.477629       -12.9969
  49   1.0000      -0.473419       -12.8824
  50   1.0000      -0.401526       -10.9261
  51   1.0000      -0.398761       -10.8508
  52   1.0000      -0.380947       -10.3661
  53   1.0000      -0.369837       -10.0638
  54   1.0000      -0.355947        -9.6858
  55   0.0000      -0.133476        -3.6321
  56   0.0000      -0.122252        -3.3267
  57   0.0000      -0.102240        -2.7821
  58   0.0000      -0.095696        -2.6040
  59   0.0000      -0.086953        -2.3661

                 SPIN DOWN ORBITALS
  NO   OCC          E(Eh)            E(eV)
   0   1.0000     -19.249377      -523.8022
   1   1.0000     -19.230783      -523.2962
   2   1.0000     -14.576868      -396.6567
   3   1.0000     -14.489792      -394.2873
   4   1.0000     -14.477070      -393.9411
   5   1.0000     -10.435151      -283.9549
   6   1.0000     -10.413774      -283.3732
   7   1.0000     -10.400545      -283.0132
   8   1.0000     -10.370054      -282.1835
   9   1.0000     -10.341846      -281.4159
  10   1.0000     -10.327396      -281.0227
  11   1.0000     -10.327215      -281.0178
  12   1.0000     -10.313930      -280.6563
  13   1.0000     -10.306499      -280.4541
  14   1.0000      -1.169909       -31.8348
  15   1.0000      -1.154323       -31.4107
  16   1.0000      -1.127326       -30.6761
  17   1.0000      -1.055653       -28.7258
  18   1.0000      -1.036300       -28.1992
  19   1.0000      -0.937426       -25.5086
  20   1.0000      -0.905268       -24.6336
  21   1.0000      -0.863242       -23.4900
  22   1.0000      -0.840211       -22.8633
  23   1.0000      -0.804178       -21.8828
  24   1.0000      -0.769954       -20.9515
  25   1.0000      -0.734665       -19.9913
  26   1.0000      -0.726426       -19.7671
  27   1.0000      -0.706460       -19.2238
  28   1.0000      -0.697141       -18.9702
  29   1.0000      -0.685987       -18.6667
  30   1.0000      -0.654912       -17.8210
  31   1.0000      -0.630588       -17.1592
  32   1.0000      -0.613013       -16.6809
  33   1.0000      -0.611902       -16.6507
  34   1.0000      -0.593691       -16.1552
  35   1.0000      -0.583726       -15.8840
  36   1.0000      -0.569561       -15.4985
  37   1.0000      -0.566204       -15.4072
  38   1.0000      -0.561382       -15.2760
  39   1.0000      -0.547068       -14.8865
  40   1.0000      -0.537195       -14.6178
  41   1.0000      -0.530493       -14.4355
  42   1.0000      -0.520318       -14.1586
  43   1.0000      -0.513735       -13.9795
  44   1.0000      -0.499377       -13.5887
  45   1.0000      -0.493793       -13.4368
  46   1.0000      -0.489625       -13.3234
  47   1.0000      -0.483741       -13.1633
  48   1.0000      -0.475931       -12.9507
  49   1.0000      -0.470947       -12.8151
  50   1.0000      -0.400579       -10.9003
  51   1.0000      -0.398504       -10.8439
  52   1.0000      -0.380812       -10.3624
  53   1.0000      -0.368996       -10.0409
  54   0.0000      -0.221232        -6.0200
  55   0.0000      -0.128183        -3.4880
  56   0.0000      -0.121381        -3.3030
  57   0.0000      -0.101627        -2.7654
  58   0.0000      -0.094188        -2.5630

MULLIKEN ATOMIC CHARGES AND SPIN POPULATIONS
--------------------------------------------
   0 N :   -0.062138    0.000105
   1 C :   -0.076449    0.005473
   2 C :    0.085677    0.000179
   3 O :   -0.316661    0.000646
   4 C :   -0.286437    0.053962
   5 C :   -0.242643   -0.063648
   6 C :   -0.087988    0.974652
   7 C :   -0.295728   -0.025954
   8 N :   -0.379758    0.056015
   9 H :    0.202864    0.002776
  10 H :    0.207335    0.017509
  11 H :    0.312237    0.006933
  12 H :    0.340867   -0.005259
  13 H :    0.271424   -0.000001
  14 C :    0.141034    0.001859
  15 N :   -0.093214    0.001221
  16 H :    0.235280   -0.000035
  17 O :   -0.374496   -0.000666
  18 H :    0.312349   -0.001934
  19 C :   -0.440072   -0.000094
  20 H :    0.184578    0.000117
  21 H :    0.168231    0.000061
  22 H :    0.203096    0.000002
  23 C :   -0.514368   -0.000075
  24 H :    0.177469    0.000027
  25 H :    0.204247    0.000064
  26 H :    0.169937    0.000003
  27 H :    0.171359    0.001423
  28 H :    0.153534   -0.001419
  29 H :    0.145669   -0.002913
  30 H :    0.170632    0.019988
  31 H :    0.152168    0.005670
  32 H :    0.159965   -0.046685
Sum of atomic charges         :    1.0000000

LOEWDIN ATOMIC CHARGES AND SPIN POPULATIONS
-------------------------------------------
   0 N :    0.098585    0.000135
   1 C :   -0.030692    0.006918
   2 C :   -0.097396    0.000021
   3 O :   -0.174986    0.000706
   4 C :   -0.047365    0.049809
   5 C :   -0.060131    0.008166
   6 C :   -0.017298    0.794922
   7 C :    0.002250    0.029463
   8 N :    0.303173    0.058506
   9 H :    0.057743    0.001509
  10 H :    0.064801    0.014251
  11 H :    0.109488    0.005163
  12 H :    0.097498    0.000209
  13 H :    0.105487   -0.000018
  14 C :   -0.072318    0.000977
  15 N :    0.051927    0.001218
  16 H :    0.082451    0.000001
  17 O :   -0.237046    0.000163
  18 H :    0.110650    0.001447
  19 C :    0.028788   -0.000002
  20 H :    0.040191    0.000078
  21 H :    0.037915    0.000043
  22 H :    0.056106   -0.000000
  23 C :   -0.019854    0.000020
  24 H :    0.055793    0.000009
  25 H :    0.067172    0.000055
  26 H :    0.045574    0.000001
  27 H :    0.070123    0.001406
  28 H :    0.050782   -0.000098
  29 H :    0.045531    0.000268
  30 H :    0.064436    0.015447
  31 H :    0.059224    0.004088
  32 H :    0.051399    0.005121

  Mayer bond orders larger than 0.100000
B(  0-N ,  1-C ) :   1.0211 B(  0-N , 13-H ) :   0.8701 B(  0-N , 14-C ) :   1.3387
B(  1-C ,  2-C ) :   0.9034 B(  1-C ,  4-C ) :   0.9666 B(  1-C , 27-H ) :   0.9440
B(  2-C ,  3-O ) :   1.8631 B(  2-C , 15-N ) :   1.2210 B(  4-C ,  5-C ) :   0.9445
B(  4-C , 28-H ) :   0.9696 B(  4-C , 29-H ) :   0.9612 B(  5-C ,  6-C ) :   1.0158
B(  5-C , 30-H ) :   0.9482 B(  5-C , 31-H ) :   0.9617 B(  6-C ,  7-C ) :   1.0117
B(  6-C , 32-H ) :   0.9699 B(  7-C ,  8-N ) :   0.8959 B(  7-C ,  9-H ) :   0.9526
B(  7-C , 10-H ) :   0.9492 B(  8-N , 11-H ) :   0.8995 B(  8-N , 12-H ) :   0.7283
B(  8-N , 18-H ) :   0.9022 B( 12-H , 17-O ) :   0.1857 B( 14-C , 17-O ) :   1.6408
B( 14-C , 23-C ) :   0.9383 B( 15-N , 16-H ) :   0.9263 B( 15-N , 19-C ) :   0.9568
B( 19-C , 20-H ) :   0.9536 B( 19-C , 21-H ) :   0.9578 B( 19-C , 22-H ) :   0.9443
B( 23-C , 24-H ) :   0.9539 B( 23-C , 25-H ) :   0.9442 B( 23-C , 26-H ) :   0.9690

FINAL SINGLE POINT ENERGY      -668.617729381913

DIPOLE MOMENT
-------------
                                X             Y             Z
Electronic contribution:     -1.55370      -3.72703      -0.46923
Nuclear contribution   :      2.52794       6.37397      -1.53277
                        -----------------------------------------
Total Dipole Moment    :      0.97424       2.64694      -2.00200
                        -----------------------------------------
Magnitude (a.u.)       :      3.45882
Magnitude (Debye)      :      8.79163

Rotational constants in cm-1:     0.031058     0.013705     0.010579
Rotational constants in MHz :   931.081764   410.874408   317.140280

                             ****ORCA TERMINATED NORMALLY****
TOTAL RUN TIME: 0 days 0 hours 15 minutes 26 seconds 716 msec
