                         Program Version 5.0.4 -  RELEASE  -
|  1> ! B3LYP EPR-II AUTOAUX
|  2> %pal nprocs 16 end
|  3> *XYZFile 1 2 opt.xyz
|  4> %EPRNMR
|  5>         GTENSOR   TRUE
|  6>         NUCLEI    = 9,10,11,17,29,30,31,32,33 {SHIFT, AISO, ADIP, AORB}
|  7>         ORI       GIAO
|  8> END
|  9>
| 10>                          ****END OF INPUT****

CARTESIAN COORDINATES (ANGSTROEM)
---------------------------------
  N     -7.822340    0.946351    0.093324
  C     -6.374810    0.876620    0.229065
  C     -6.060401    0.858782    1.736982
  O     -6.748532    1.511826    2.526045
  C     -5.648639    2.055344   -0.480070
  C     -6.064429    3.443418    0.034922
  C     -5.477860    4.569639   -0.848616
  C     -5.865909    5.917308   -0.353552
  N     -5.635975    7.086590   -1.252783
  H     -6.159584    7.910954   -0.937636
  H     -5.941115    6.869246   -2.209527
  H     -8.343312    1.146531    0.936513
  C     -8.453423    0.657686   -1.090181
  N     -4.968041    0.132565    2.098022
  H     -4.540870   -0.457876    1.399439
  O     -7.817780    0.413513   -2.116171
  H     -4.641321    7.354989   -1.308604
  C     -4.521587   -0.003110    3.484539
  H     -4.743731   -1.002592    3.871870
  H     -3.445492    0.177844    3.556354
  H     -5.055697    0.732873    4.085123
  C     -9.975826    0.654063   -1.053299
  H    -10.349933    1.325044   -1.830836
  H    -10.320980   -0.354180   -1.299210
  H    -10.391142    0.946607   -0.085455
  H     -6.024891   -0.044087   -0.252143
  H     -4.565482    1.919625   -0.368294
  H     -5.883414    1.963341   -1.545463
  H     -5.739281    3.583925    1.071043
  H     -7.155985    3.520983    0.030765
  H     -4.374908    4.483230   -0.867213
  H     -5.807319    4.439880   -1.891138
  H     -5.982253    6.195028    0.688616

 Total Charge           Charge          ....    1
 Multiplicity           Mult            ....    2
 Number of Electrons    NEL             ....  109
 Basis Dimension        Dim             ....  371

ORBITAL ENERGIES
----------------
                 SPIN UP ORBITALS
  NO   OCC          E(Eh)            E(eV)
   0   1.0000     -19.205557      -522.6098
   1   1.0000     -19.185012      -522.0507
   2   1.0000     -14.658783      -398.8858
   3   1.0000     -14.455984      -393.3673
   4   1.0000     -14.438476      -392.8909
   5   1.0000     -10.438098      -284.0351
   6   1.0000     -10.388050      -282.6732
   7   1.0000     -10.372767      -282.2574
   8   1.0000     -10.360556      -281.9251
   9   1.0000     -10.332358      -281.1578
  10   1.0000     -10.314647      -280.6758
  11   1.0000     -10.298839      -280.2457
  12   1.0000     -10.296682      -280.1870
  13   1.0000     -10.263313      -279.2789
  14   1.0000      -1.206064       -32.8187
  15   1.0000      -1.129004       -30.7218
  16   1.0000      -1.108107       -30.1531
  17   1.0000      -1.013715       -27.5846
  18   1.0000      -1.004198       -27.3256
  19   1.0000      -0.962221       -26.1834
  20   1.0000      -0.891463       -24.2579
  21   1.0000      -0.846775       -23.0419
  22   1.0000      -0.809590       -22.0301
  23   1.0000      -0.804827       -21.9005
  24   1.0000      -0.784550       -21.3487
  25   1.0000      -0.783158       -21.3108
  26   1.0000      -0.750862       -20.4320
  27   1.0000      -0.716847       -19.5064
  28   1.0000      -0.680573       -18.5193
  29   1.0000      -0.678629       -18.4664
  30   1.0000      -0.656992       -17.8777
  31   1.0000      -0.625133       -17.0107
  32   1.0000      -0.609505       -16.5855
  33   1.0000      -0.592367       -16.1191
  34   1.0000      -0.574033       -15.6202
  35   1.0000      -0.553128       -15.0514
  36   1.0000      -0.548294       -14.9199
  37   1.0000      -0.543330       -14.7848
  38   1.0000      -0.531156       -14.4535
  39   1.0000      -0.525340       -14.2952
  40   1.0000      -0.515976       -14.0404
  41   1.0000      -0.495814       -13.4918
  42   1.0000      -0.487663       -13.2700
  43   1.0000      -0.481027       -13.0894
  44   1.0000      -0.477477       -12.9928
  45   1.0000      -0.471635       -12.8339
  46   1.0000      -0.461510       -12.5583
  47   1.0000      -0.456124       -12.4118
  48   1.0000      -0.455065       -12.3829
  49   1.0000      -0.426748       -11.6124
  50   1.0000      -0.410412       -11.1679
  51   1.0000      -0.356235        -9.6936
  52   1.0000      -0.351818        -9.5735
  53   1.0000      -0.336081        -9.1452
  54   1.0000      -0.330570        -8.9953
  55   0.0000      -0.187654        -5.1063
  56   0.0000      -0.116456        -3.1689
  57   0.0000      -0.106898        -2.9088
  58   0.0000      -0.087054        -2.3689
  59   0.0000      -0.082726        -2.2511

                 SPIN DOWN ORBITALS
  NO   OCC          E(Eh)            E(eV)
   0   1.0000     -19.205554      -522.6097
   1   1.0000     -19.185010      -522.0507
   2   1.0000     -14.659478      -398.9047
   3   1.0000     -14.455981      -393.3672
   4   1.0000     -14.438474      -392.8909
   5   1.0000     -10.423229      -283.6305
   6   1.0000     -10.388050      -282.6732
   7   1.0000     -10.372768      -282.2574
   8   1.0000     -10.361183      -281.9421
   9   1.0000     -10.332364      -281.1579
  10   1.0000     -10.314460      -280.6707
  11   1.0000     -10.298839      -280.2457
  12   1.0000     -10.296675      -280.1868
  13   1.0000     -10.263312      -279.2789
  14   1.0000      -1.201904       -32.7055
  15   1.0000      -1.129000       -30.7217
  16   1.0000      -1.108103       -30.1530
  17   1.0000      -1.013708       -27.5844
  18   1.0000      -1.004165       -27.3247
  19   1.0000      -0.950671       -25.8691
  20   1.0000      -0.884533       -24.0694
  21   1.0000      -0.839184       -22.8353
  22   1.0000      -0.807075       -21.9616
  23   1.0000      -0.802812       -21.8456
  24   1.0000      -0.782849       -21.3024
  25   1.0000      -0.776451       -21.1283
  26   1.0000      -0.749325       -20.3902
  27   1.0000      -0.715513       -19.4701
  28   1.0000      -0.678699       -18.4683
  29   1.0000      -0.672760       -18.3067
  30   1.0000      -0.655230       -17.8297
  31   1.0000      -0.623897       -16.9771
  32   1.0000      -0.600216       -16.3327
  33   1.0000      -0.587098       -15.9757
  34   1.0000      -0.573146       -15.5961
  35   1.0000      -0.552628       -15.0378
  36   1.0000      -0.546822       -14.8798
  37   1.0000      -0.540828       -14.7167
  38   1.0000      -0.529966       -14.4211
  39   1.0000      -0.523827       -14.2541
  40   1.0000      -0.514378       -13.9969
  41   1.0000      -0.495489       -13.4829
  42   1.0000      -0.486510       -13.2386
  43   1.0000      -0.480404       -13.0725
  44   1.0000      -0.477392       -12.9905
  45   1.0000      -0.471307       -12.8249
  46   1.0000      -0.461208       -12.5501
  47   1.0000      -0.455476       -12.3941
  48   1.0000      -0.454630       -12.3711
  49   1.0000      -0.426461       -11.6046
  50   1.0000      -0.356223        -9.6933
  51   1.0000      -0.351821        -9.5735
  52   1.0000      -0.336052        -9.1444
  53   1.0000      -0.330560        -8.9950
  54   0.0000      -0.257305        -7.0016
  55   0.0000      -0.186010        -5.0616
  56   0.0000      -0.115001        -3.1293
  57   0.0000      -0.102674        -2.7939
  58   0.0000      -0.082696        -2.2503

MULLIKEN ATOMIC CHARGES AND SPIN POPULATIONS
--------------------------------------------
   0 N :   -0.135774    0.000120
   1 C :   -0.105599    0.000059
   2 C :    0.081071   -0.000037
   3 O :   -0.327939    0.000080
   4 C :   -0.270102   -0.000547
   5 C :   -0.272067    0.010624
   6 C :   -0.254526   -0.055963
   7 C :   -0.131360    0.985519
   8 N :   -0.349470   -0.036486
   9 H :    0.338763    0.003850
  10 H :    0.335987    0.009977
  11 H :    0.258084   -0.000013
  12 C :    0.171182   -0.000101
  13 N :   -0.105212    0.000139
  14 H :    0.237820   -0.000005
  15 O :   -0.317139    0.000082
  16 H :    0.334167    0.038621
  17 C :   -0.449267    0.000002
  18 H :    0.180859    0.000009
  19 H :    0.165555    0.000008
  20 H :    0.199061   -0.000000
  21 C :   -0.543052    0.000055
  22 H :    0.184453   -0.000000
  23 H :    0.199845   -0.000002
  24 H :    0.150854   -0.000002
  25 H :    0.158484    0.000020
  26 H :    0.145315    0.000547
  27 H :    0.185617    0.000288
  28 H :    0.179266   -0.000511
  29 H :    0.179256   -0.001071
  30 H :    0.186789    0.062682
  31 H :    0.173535    0.021469
  32 H :    0.215537   -0.039414
Sum of atomic charges         :    1.0000000

LOEWDIN ATOMIC CHARGES AND SPIN POPULATIONS
-------------------------------------------
   0 N :    0.057275    0.000072
   1 C :   -0.040162   -0.000082
   2 C :   -0.100400   -0.000002
   3 O :   -0.195958    0.000067
   4 C :   -0.049833    0.000638
   5 C :   -0.051164    0.007513
   6 C :   -0.085076    0.013121
   7 C :    0.030160    0.849259
   8 N :    0.349870    0.000517
   9 H :    0.132128    0.004188
  10 H :    0.133422    0.010520
  11 H :    0.092220   -0.000000
  12 C :   -0.101561   -0.000013
  13 N :    0.050212    0.000118
  14 H :    0.083042    0.000000
  15 O :   -0.191586    0.000076
  16 H :    0.131044    0.034844
  17 C :    0.020024    0.000002
  18 H :    0.038754    0.000006
  19 H :    0.034826    0.000006
  20 H :    0.054713    0.000000
  21 C :   -0.035747    0.000029
  22 H :    0.055002   -0.000001
  23 H :    0.061998   -0.000000
  24 H :    0.035666   -0.000001
  25 H :    0.064680    0.000028
  26 H :    0.050079    0.000594
  27 H :    0.062117    0.000207
  28 H :    0.056463   -0.000134
  29 H :    0.057967   -0.000390
  30 H :    0.074205    0.052291
  31 H :    0.063485    0.019117
  32 H :    0.062134    0.007410

  Mayer bond orders larger than 0.100000
B(  0-N ,  1-C ) :   1.0170 B(  0-N , 11-H ) :   0.8975 B(  0-N , 12-C ) :   1.1906
B(  1-C ,  2-C ) :   0.8950 B(  1-C ,  4-C ) :   0.9354 B(  1-C , 15-O ) :   0.1272
B(  1-C , 25-H ) :   0.9747 B(  2-C ,  3-O ) :   1.8618 B(  2-C , 13-N ) :   1.2074
B(  4-C ,  5-C ) :   0.9628 B(  4-C , 26-H ) :   0.9705 B(  4-C , 27-H ) :   0.9544
B(  5-C ,  6-C ) :   0.9441 B(  5-C , 28-H ) :   0.9634 B(  5-C , 29-H ) :   0.9651
B(  6-C ,  7-C ) :   1.0039 B(  6-C , 30-H ) :   0.9379 B(  6-C , 31-H ) :   0.9528
B(  7-C ,  8-N ) :   0.8977 B(  7-C , 32-H ) :   0.9390 B(  8-N ,  9-H ) :   0.8842
B(  8-N , 10-H ) :   0.8820 B(  8-N , 16-H ) :   0.8705 B( 12-C , 15-O ) :   1.8661
B( 12-C , 21-C ) :   0.9021 B( 13-N , 14-H ) :   0.9262 B( 13-N , 17-C ) :   0.9637
B( 17-C , 18-H ) :   0.9537 B( 17-C , 19-H ) :   0.9584 B( 17-C , 20-H ) :   0.9443
B( 21-C , 22-H ) :   0.9567 B( 21-C , 23-H ) :   0.9504 B( 21-C , 24-H ) :   0.9745

FINAL SINGLE POINT ENERGY      -668.578047186795

DIPOLE MOMENT
-------------
                                X             Y             Z
Electronic contribution:     -1.92505      -2.69421      -0.47874
Nuclear contribution   :      4.23457       9.92477      -0.92499
                        -----------------------------------------
Total Dipole Moment    :      2.30952       7.23057      -1.40373
                        -----------------------------------------
Magnitude (a.u.)       :      7.71916
Magnitude (Debye)      :     19.62054

Rotational constants in cm-1:     0.019917     0.012955     0.008892
Rotational constants in MHz :   597.086466   388.385626   266.567141

CHEMICAL SHIELDING SUMMARY (ppm)  --  Orbital contribution
----------------------------------------------------------

  Nucleus  Element    Isotropic     Anisotropy
  -------  -------  ------------   ------------
      8       N          200.934         36.254
      9       H           26.295         13.990
     10       H           26.764         10.805
     16       H           26.501         13.961
     28       H           30.076          6.171
     29       H           29.789          5.914
     30       H           29.147          6.088
     31       H           29.645          4.406
     32       H           26.056          6.393

                             ****ORCA TERMINATED NORMALLY****
TOTAL RUN TIME: 0 days 0 hours 5 minutes 23 seconds 135 msec
