                         Program Version 5.0.4 -  RELEASE  -
|  1> ! M062X def2-TZVP OPT FREQ
|  2> %pal nprocs 16 end
|  3> *XYZFile 1 2 opt.xyz
|  4>
|  5>                          ****END OF INPUT****
 Total Charge           Charge          ....    1
 Multiplicity           Mult            ....    2
 Number of Electrons    NEL             ....  109
FINAL SINGLE POINT ENERGY      -668.796147931656
FINAL SINGLE POINT ENERGY      -668.798948942081
FINAL SINGLE POINT ENERGY      -668.799057989287
FINAL SINGLE POINT ENERGY      -668.799062031071
FINAL SINGLE POINT ENERGY      -668.799077254755
FINAL SINGLE POINT ENERGY      -668.799024012750
FINAL SINGLE POINT ENERGY      -668.798742614364
FINAL SINGLE POINT ENERGY      -668.799042007998
FINAL SINGLE POINT ENERGY      -668.799047671330
FINAL SINGLE POINT ENERGY      -668.799042475415
FINAL SINGLE POINT ENERGY      -668.799044722952
FINAL SINGLE POINT ENERGY      -668.799052177114
FINAL SINGLE POINT ENERGY      -668.799055754002
                    ***********************HURRAY********************

CARTESIAN COORDINATES (ANGSTROEM)
---------------------------------
  N     -7.885574    0.949741    0.054170
  C     -6.457079    0.833869    0.208339
  C     -6.147823    0.848083    1.704085
  O     -6.933681    1.327732    2.500320
  C     -5.711023    1.977316   -0.499768
  C     -6.028485    3.343672    0.094873
  C     -5.494936    4.465337   -0.799899
  C     -5.790927    5.795635   -0.237634
  N     -5.579215    6.966189   -1.114061
  H     -6.052556    7.799607   -0.753106
  H     -5.946828    6.778149   -2.053134
  H     -8.418867    1.095003    0.899066
  C     -8.481768    0.666246   -1.135318
  N     -4.933854    0.365445    2.037338
  H     -4.410512   -0.123740    1.329708
  O     -7.826315    0.413548   -2.128324
  H     -4.583413    7.202448   -1.225742
  C     -4.468809    0.297583    3.411422
  H     -4.535316   -0.718761    3.799703
  H     -3.436669    0.638086    3.474527
  H     -5.102676    0.944681    4.011171
  C     -9.989784    0.682669   -1.144378
  H    -10.326292    1.278757   -1.990525
  H    -10.340581   -0.337217   -1.301817
  H    -10.419287    1.069914   -0.222389
  H     -6.125543   -0.106246   -0.241648
  H     -4.635253    1.788716   -0.452543
  H     -6.006870    1.936896   -1.549766
  H     -5.596833    3.436240    1.095246
  H     -7.109625    3.453151    0.203993
  H     -4.408004    4.344466   -0.933291
  H     -5.932776    4.377819   -1.802392
  H     -5.785090    6.040928    0.814208

 Multiplicity           Mult            ....    2
 Number of Electrons    NEL             ....  109
 Basis Dimension        Dim             ....  548

ORBITAL ENERGIES
----------------
                 SPIN UP ORBITALS
  NO   OCC          E(Eh)            E(eV)
   0   1.0000     -19.691463      -535.8320
   1   1.0000     -19.669140      -535.2245
   2   1.0000     -15.077847      -410.2891
   3   1.0000     -14.871067      -404.6623
   4   1.0000     -14.853646      -404.1883
   5   1.0000     -10.791130      -293.6416
   6   1.0000     -10.739076      -292.2251
   7   1.0000     -10.722201      -291.7659
   8   1.0000     -10.710050      -291.4353
   9   1.0000     -10.682549      -290.6869
  10   1.0000     -10.667541      -290.2785
  11   1.0000     -10.653171      -289.8875
  12   1.0000     -10.648475      -289.7597
  13   1.0000     -10.613837      -288.8172
  14   1.0000      -1.321745       -35.9665
  15   1.0000      -1.266006       -34.4498
  16   1.0000      -1.243481       -33.8368
  17   1.0000      -1.132072       -30.8053
  18   1.0000      -1.122472       -30.5440
  19   1.0000      -1.071445       -29.1555
  20   1.0000      -0.998210       -27.1627
  21   1.0000      -0.946835       -25.7647
  22   1.0000      -0.908634       -24.7252
  23   1.0000      -0.899606       -24.4795
  24   1.0000      -0.871582       -23.7170
  25   1.0000      -0.863361       -23.4933
  26   1.0000      -0.838369       -22.8132
  27   1.0000      -0.807706       -21.9788
  28   1.0000      -0.767132       -20.8747
  29   1.0000      -0.761479       -20.7209
  30   1.0000      -0.739503       -20.1229
  31   1.0000      -0.710201       -19.3255
  32   1.0000      -0.689700       -18.7677
  33   1.0000      -0.669628       -18.2215
  34   1.0000      -0.660197       -17.9649
  35   1.0000      -0.636005       -17.3066
  36   1.0000      -0.630932       -17.1685
  37   1.0000      -0.624027       -16.9806
  38   1.0000      -0.610755       -16.6195
  39   1.0000      -0.599247       -16.3063
  40   1.0000      -0.594037       -16.1646
  41   1.0000      -0.572531       -15.5794
  42   1.0000      -0.562216       -15.2987
  43   1.0000      -0.556735       -15.1495
  44   1.0000      -0.547199       -14.8900
  45   1.0000      -0.541574       -14.7370
  46   1.0000      -0.532451       -14.4887
  47   1.0000      -0.530820       -14.4443
  48   1.0000      -0.522121       -14.2076
  49   1.0000      -0.498853       -13.5745
  50   1.0000      -0.470306       -12.7977
  51   1.0000      -0.434957       -11.8358
  52   1.0000      -0.422398       -11.4940
  53   1.0000      -0.411556       -11.1990
  54   1.0000      -0.404188       -10.9985
  55   0.0000      -0.152283        -4.1438
  56   0.0000      -0.094536        -2.5725
  57   0.0000      -0.084279        -2.2934
  58   0.0000      -0.058321        -1.5870
  59   0.0000      -0.045440        -1.2365

                 SPIN DOWN ORBITALS
  NO   OCC          E(Eh)            E(eV)
   0   1.0000     -19.691463      -535.8320
   1   1.0000     -19.669140      -535.2245
   2   1.0000     -15.078561      -410.3085
   3   1.0000     -14.871066      -404.6623
   4   1.0000     -14.853645      -404.1882
   5   1.0000     -10.782792      -293.4147
   6   1.0000     -10.739076      -292.2251
   7   1.0000     -10.722201      -291.7659
   8   1.0000     -10.710549      -291.4489
   9   1.0000     -10.682555      -290.6871
  10   1.0000     -10.667419      -290.2752
  11   1.0000     -10.653171      -289.8875
  12   1.0000     -10.648476      -289.7598
  13   1.0000     -10.613836      -288.8172
  14   1.0000      -1.316162       -35.8146
  15   1.0000      -1.266006       -34.4498
  16   1.0000      -1.243480       -33.8368
  17   1.0000      -1.132070       -30.8052
  18   1.0000      -1.122438       -30.5431
  19   1.0000      -1.059076       -28.8189
  20   1.0000      -0.990412       -26.9505
  21   1.0000      -0.937431       -25.5088
  22   1.0000      -0.907649       -24.6984
  23   1.0000      -0.892465       -24.2852
  24   1.0000      -0.869921       -23.6717
  25   1.0000      -0.853544       -23.2261
  26   1.0000      -0.836399       -22.7596
  27   1.0000      -0.806023       -21.9330
  28   1.0000      -0.767092       -20.8736
  29   1.0000      -0.753143       -20.4941
  30   1.0000      -0.735607       -20.0169
  31   1.0000      -0.708998       -19.2928
  32   1.0000      -0.678710       -18.4686
  33   1.0000      -0.664963       -18.0946
  34   1.0000      -0.657770       -17.8988
  35   1.0000      -0.635470       -17.2920
  36   1.0000      -0.629178       -17.1208
  37   1.0000      -0.621697       -16.9172
  38   1.0000      -0.608663       -16.5626
  39   1.0000      -0.598488       -16.2857
  40   1.0000      -0.589716       -16.0470
  41   1.0000      -0.572000       -15.5649
  42   1.0000      -0.560803       -15.2602
  43   1.0000      -0.556042       -15.1307
  44   1.0000      -0.547180       -14.8895
  45   1.0000      -0.541060       -14.7230
  46   1.0000      -0.532166       -14.4810
  47   1.0000      -0.530072       -14.4240
  48   1.0000      -0.521153       -14.1813
  49   1.0000      -0.498467       -13.5640
  50   1.0000      -0.434962       -11.8359
  51   1.0000      -0.422405       -11.4942
  52   1.0000      -0.411566       -11.1993
  53   1.0000      -0.404149       -10.9975
  54   0.0000      -0.218422        -5.9436
  55   0.0000      -0.156319        -4.2537
  56   0.0000      -0.096918        -2.6373
  57   0.0000      -0.090928        -2.4743
  58   0.0000      -0.062591        -1.7032

MULLIKEN ATOMIC CHARGES AND SPIN POPULATIONS
--------------------------------------------
   0 N :   -0.416301    0.000052
   1 C :   -0.097503   -0.000381
   2 C :    0.355623    0.000056
   3 O :   -0.406351   -0.000014
   4 C :   -0.328696    0.001149
   5 C :   -0.329711    0.021572
   6 C :   -0.341562   -0.072994
   7 C :   -0.068054    0.996883
   8 N :   -0.337255   -0.047185
   9 H :    0.346108    0.005567
  10 H :    0.339501    0.009865
  11 H :    0.275928    0.000038
  12 C :    0.386616    0.000177
  13 N :   -0.352983   -0.000024
  14 H :    0.255391    0.000011
  15 O :   -0.404989    0.000022
  16 H :    0.341014    0.037014
  17 C :   -0.311911   -0.000006
  18 H :    0.165476    0.000002
  19 H :    0.149145    0.000002
  20 H :    0.181967   -0.000002
  21 C :   -0.451070   -0.000030
  22 H :    0.159600   -0.000000
  23 H :    0.175906    0.000000
  24 H :    0.133925    0.000006
  25 H :    0.206221    0.000038
  26 H :    0.170007   -0.000436
  27 H :    0.212265    0.000042
  28 H :    0.178099   -0.001844
  29 H :    0.186383   -0.004423
  30 H :    0.196272    0.064021
  31 H :    0.192981    0.023797
  32 H :    0.237959   -0.032975
Sum of atomic charges         :    1.0000000

LOEWDIN ATOMIC CHARGES AND SPIN POPULATIONS
-------------------------------------------
   0 N :    0.138375    0.000039
   1 C :   -0.247970   -0.000039
   2 C :   -0.447722    0.000005
   3 O :    0.062786   -0.000004
   4 C :   -0.234024    0.000926
   5 C :   -0.246632    0.005412
   6 C :   -0.286023    0.064941
   7 C :   -0.126406    0.805077
   8 N :    0.162823    0.030071
   9 H :    0.225414    0.003697
  10 H :    0.225454    0.007125
  11 H :    0.196655    0.000006
  12 C :   -0.478282   -0.000016
  13 N :    0.103259    0.000026
  14 H :    0.190507    0.000002
  15 O :    0.059402    0.000007
  16 H :    0.224005    0.027636
  17 C :   -0.293385    0.000004
  18 H :    0.122205    0.000001
  19 H :    0.118135    0.000001
  20 H :    0.134195   -0.000000
  21 C :   -0.257283    0.000007
  22 H :    0.139552    0.000000
  23 H :    0.146681   -0.000000
  24 H :    0.124546    0.000000
  25 H :    0.167343    0.000026
  26 H :    0.143485    0.000438
  27 H :    0.156925    0.000091
  28 H :    0.150891   -0.000257
  29 H :    0.151630   -0.000170
  30 H :    0.165366    0.039959
  31 H :    0.159472    0.013780
  32 H :    0.148621    0.001211

  Mayer bond orders larger than 0.100000
B(  0-N ,  1-C ) :   0.9416 B(  0-N , 11-H ) :   0.8804 B(  0-N , 12-C ) :   1.1880
B(  1-C ,  2-C ) :   0.9293 B(  1-C ,  4-C ) :   0.8818 B(  1-C , 25-H ) :   0.9919
B(  2-C ,  3-O ) :   1.8946 B(  2-C , 13-N ) :   1.2369 B(  4-C ,  5-C ) :   0.8475
B(  4-C , 26-H ) :   0.9715 B(  4-C , 27-H ) :   0.9719 B(  5-C ,  6-C ) :   0.8723
B(  5-C , 28-H ) :   0.9719 B(  5-C , 29-H ) :   0.9873 B(  6-C ,  7-C ) :   1.0266
B(  6-C , 30-H ) :   0.9250 B(  6-C , 31-H ) :   0.9824 B(  7-C ,  8-N ) :   0.8839
B(  7-C , 32-H ) :   0.9311 B(  8-N ,  9-H ) :   0.8716 B(  8-N , 10-H ) :   0.8700
B(  8-N , 16-H ) :   0.8569 B( 12-C , 15-O ) :   1.9026 B( 12-C , 21-C ) :   0.9155
B( 13-N , 14-H ) :   0.9142 B( 13-N , 17-C ) :   0.8930 B( 17-C , 18-H ) :   0.9683
B( 17-C , 19-H ) :   0.9653 B( 17-C , 20-H ) :   0.9609 B( 21-C , 22-H ) :   0.9604
B( 21-C , 23-H ) :   0.9502 B( 21-C , 24-H ) :   0.9877

FINAL SINGLE POINT ENERGY      -668.799058704893

DIPOLE MOMENT
-------------
                                X             Y             Z
Electronic contribution:     -2.37552      -3.04982      -0.45773
Nuclear contribution   :      4.85805      10.32649      -0.80953
                        -----------------------------------------
Total Dipole Moment    :      2.48254       7.27666      -1.26725
                        -----------------------------------------
Magnitude (a.u.)       :      7.79222
Magnitude (Debye)      :     19.80626

VIBRATIONAL FREQUENCIES
-----------------------

Scaling factor for frequencies =  1.000000000  (already applied!)

   0:         0.00 cm**-1
   1:         0.00 cm**-1
   2:         0.00 cm**-1
   3:         0.00 cm**-1
   4:         0.00 cm**-1
   5:         0.00 cm**-1
   6:        17.00 cm**-1
   7:        26.63 cm**-1
   8:        40.06 cm**-1
   9:        59.42 cm**-1
  10:        69.80 cm**-1
  11:        82.21 cm**-1
  12:        92.73 cm**-1
  13:       111.72 cm**-1
  14:       122.13 cm**-1
  15:       130.54 cm**-1
  16:       141.94 cm**-1
  17:       154.92 cm**-1
  18:       180.55 cm**-1
  19:       221.92 cm**-1
  20:       252.04 cm**-1
  21:       294.65 cm**-1
  22:       318.38 cm**-1
  23:       346.59 cm**-1
  24:       383.46 cm**-1
  25:       410.55 cm**-1
  26:       475.54 cm**-1
  27:       488.08 cm**-1
  28:       511.57 cm**-1
  29:       547.74 cm**-1
  30:       572.57 cm**-1
  31:       656.85 cm**-1
  32:       670.10 cm**-1
  33:       707.22 cm**-1
  34:       749.03 cm**-1
  35:       809.00 cm**-1
  36:       849.90 cm**-1
  37:       891.46 cm**-1
  38:       919.84 cm**-1
  39:       945.17 cm**-1
  40:      1001.79 cm**-1
  41:      1014.25 cm**-1
  42:      1019.40 cm**-1
  43:      1028.86 cm**-1
  44:      1065.17 cm**-1
  45:      1066.61 cm**-1
  46:      1067.91 cm**-1
  47:      1093.38 cm**-1
  48:      1107.03 cm**-1
  49:      1156.47 cm**-1
  50:      1161.84 cm**-1
  51:      1177.42 cm**-1
  52:      1183.90 cm**-1
  53:      1220.67 cm**-1
  54:      1236.48 cm**-1
  55:      1272.14 cm**-1
  56:      1279.75 cm**-1
  57:      1299.06 cm**-1
  58:      1321.51 cm**-1
  59:      1342.92 cm**-1
  60:      1371.15 cm**-1
  61:      1391.73 cm**-1
  62:      1410.48 cm**-1
  63:      1412.07 cm**-1
  64:      1416.98 cm**-1
  65:      1451.88 cm**-1
  66:      1464.63 cm**-1
  67:      1473.34 cm**-1
  68:      1488.67 cm**-1
  69:      1490.80 cm**-1
  70:      1501.33 cm**-1
  71:      1502.93 cm**-1
  72:      1509.73 cm**-1
  73:      1511.87 cm**-1
  74:      1541.55 cm**-1
  75:      1593.01 cm**-1
  76:      1633.68 cm**-1
  77:      1645.90 cm**-1
  78:      1776.88 cm**-1
  79:      1791.62 cm**-1
  80:      2987.94 cm**-1
  81:      3052.92 cm**-1
  82:      3071.44 cm**-1
  83:      3077.63 cm**-1
  84:      3083.75 cm**-1
  85:      3086.29 cm**-1
  86:      3089.75 cm**-1
  87:      3121.42 cm**-1
  88:      3139.19 cm**-1
  89:      3157.89 cm**-1
  90:      3170.56 cm**-1
  91:      3185.81 cm**-1
  92:      3196.63 cm**-1
  93:      3245.13 cm**-1
  94:      3349.09 cm**-1
  95:      3426.51 cm**-1
  96:      3474.85 cm**-1
  97:      3618.00 cm**-1
  98:      3646.18 cm**-1

IR SPECTRUM
-----------

 Mode   freq       eps      Int      T**2         TX        TY        TZ
       cm**-1   L/(mol*cm) km/mol    a.u.
----------------------------------------------------------------------------
  6:     17.00   0.000126    0.64  0.002308  ( 0.038763 -0.021807  0.018170)
  7:     26.63   0.002856   14.43  0.033470  ( 0.132620  0.092123  0.085995)
  8:     40.06   0.000343    1.73  0.002669  ( 0.042841  0.024988 -0.014455)
  9:     59.42   0.001605    8.11  0.008427  ( 0.075204  0.016042 -0.050143)
 10:     69.80   0.001172    5.92  0.005240  ( 0.042263 -0.057222  0.013411)
 11:     82.21   0.001563    7.90  0.005932  (-0.014136  0.034258 -0.067514)
 12:     92.73   0.002598   13.13  0.008743  ( 0.019620  0.087091 -0.027813)
 13:    111.72   0.001357    6.86  0.003791  (-0.025809 -0.025936 -0.049521)
 14:    122.13   0.000197    1.00  0.000504  (-0.001169 -0.021406 -0.006696)
 15:    130.54   0.000651    3.29  0.001557  (-0.013644 -0.030032 -0.021657)
 16:    141.94   0.001456    7.36  0.003200  (-0.052554  0.005580 -0.020181)
 17:    154.92   0.000451    2.28  0.000908  ( 0.017727  0.024184  0.002991)
 18:    180.55   0.001854    9.37  0.003205  (-0.026846 -0.049690 -0.003870)
 19:    221.92   0.002011   10.16  0.002827  ( 0.000819  0.052956 -0.004723)
 20:    252.04   0.001230    6.21  0.001523  (-0.029734 -0.018705 -0.016989)
 21:    294.65   0.001047    5.29  0.001109  ( 0.030072  0.000343  0.014315)
 22:    318.38   0.000585    2.95  0.000573  ( 0.022415 -0.008373 -0.000617)
 23:    346.59   0.000354    1.79  0.000318  (-0.015199  0.001398  0.009243)
 24:    383.46   0.003495   17.66  0.002844  ( 0.036014 -0.000345  0.039332)
 25:    410.55   0.001341    6.78  0.001019  (-0.031073 -0.000344  0.007338)
 26:    475.54   0.003389   17.13  0.002224  ( 0.009355 -0.041384  0.020590)
 27:    488.08   0.011923   60.25  0.007623  (-0.078886 -0.036191  0.009492)
 28:    511.57   0.005063   25.59  0.003089  (-0.019199 -0.046053  0.024479)
 29:    547.74   0.016350   82.63  0.009315  (-0.032382 -0.090878  0.002798)
 30:    572.57   0.004134   20.89  0.002253  (-0.027348  0.035165 -0.016396)
 31:    656.85   0.003493   17.65  0.001659  (-0.018183 -0.033326 -0.014772)
 32:    670.10   0.000460    2.32  0.000214  (-0.009808 -0.004074 -0.010061)
 33:    707.22   0.000086    0.43  0.000038  ( 0.004602 -0.003794 -0.001520)
 34:    749.03   0.000514    2.60  0.000214  (-0.011149 -0.000548 -0.009460)
 35:    809.00   0.000245    1.24  0.000095  ( 0.003516  0.008799 -0.002181)
 36:    849.90   0.001369    6.92  0.000503  ( 0.013957 -0.000737  0.017532)
 37:    891.46   0.000502    2.54  0.000176  (-0.006644  0.011008  0.003229)
 38:    919.84   0.001853    9.36  0.000629  ( 0.006117  0.023783  0.005054)
 39:    945.17   0.001803    9.11  0.000595  ( 0.015580 -0.016639 -0.008702)
 40:   1001.79   0.000523    2.64  0.000163  (-0.002258 -0.012078  0.003471)
 41:   1014.25   0.000566    2.86  0.000174  ( 0.005564  0.002071  0.011779)
 42:   1019.40   0.002622   13.25  0.000803  ( 0.027544  0.006624  0.000282)
 43:   1028.86   0.002120   10.72  0.000643  (-0.007214 -0.013969 -0.019898)
 44:   1065.17   0.001445    7.30  0.000423  ( 0.001653  0.020286 -0.003007)
 45:   1066.61   0.000239    1.21  0.000070  ( 0.007368 -0.001803 -0.003525)
 46:   1067.91   0.001036    5.23  0.000303  ( 0.017293  0.001868 -0.000361)
 47:   1093.38   0.002679   13.54  0.000765  ( 0.007335 -0.019169  0.018527)
 48:   1107.03   0.000533    2.69  0.000150  (-0.002098 -0.004564  0.011176)
 49:   1156.47   0.000851    4.30  0.000230  ( 0.003853  0.005130  0.013727)
 50:   1161.84   0.002614   13.21  0.000702  (-0.022833  0.011238 -0.007387)
 51:   1177.42   0.003549   17.94  0.000941  (-0.004655  0.029836  0.005368)
 52:   1183.90   0.004771   24.11  0.001257  ( 0.029099 -0.005232  0.019580)
 53:   1220.67   0.000798    4.03  0.000204  (-0.013483  0.003381 -0.003295)
 54:   1236.48   0.005830   29.46  0.001471  ( 0.021013 -0.010567  0.030302)
 55:   1272.14   0.007383   37.31  0.001811  ( 0.034679  0.001631  0.024613)
 56:   1279.75   0.004216   21.30  0.001028  ( 0.010455  0.028659 -0.009868)
 57:   1299.06   0.000868    4.39  0.000209  (-0.009890 -0.002293 -0.010271)
 58:   1321.51   0.009589   48.46  0.002264  ( 0.023551  0.013502  0.039084)
 59:   1342.92   0.000163    0.82  0.000038  (-0.005864  0.001503 -0.001132)
 60:   1371.15   0.001818    9.19  0.000414  ( 0.015736 -0.004776  0.011968)
 61:   1391.73   0.001687    8.52  0.000378  (-0.000127 -0.009998  0.016681)
 62:   1410.48   0.004674   23.62  0.001034  ( 0.010307 -0.028611  0.010454)
 63:   1412.07   0.010794   54.55  0.002385  ( 0.036849  0.019036  0.025793)
 64:   1416.98   0.001847    9.33  0.000407  ( 0.006513  0.011786 -0.015015)
 65:   1451.88   0.003808   19.24  0.000818  ( 0.016503 -0.019958 -0.012158)
 66:   1464.63   0.001563    7.90  0.000333  ( 0.003015 -0.017357 -0.004766)
 67:   1473.34   0.003397   17.17  0.000720  (-0.005625  0.012014 -0.023315)
 68:   1488.67   0.007239   36.58  0.001517  ( 0.011080  0.005077  0.036998)
 69:   1490.80   0.005085   25.70  0.001064  ( 0.020214  0.017083  0.019076)
 70:   1501.33   0.004133   20.88  0.000859  ( 0.020358  0.012851  0.016715)
 71:   1502.93   0.002307   11.66  0.000479  (-0.017949  0.009393  0.008285)
 72:   1509.73   0.013649   68.98  0.002821  ( 0.027591 -0.012514  0.043627)
 73:   1511.87   0.026429  133.56  0.005455  ( 0.012688  0.056300 -0.046092)
 74:   1541.55   0.086095  435.09  0.017429  (-0.104910 -0.015405 -0.078645)
 75:   1593.01   0.032699  165.25  0.006406  (-0.056066  0.041536 -0.039203)
 76:   1633.68   0.010655   53.85  0.002035  ( 0.039709 -0.002475  0.021269)
 77:   1645.90   0.007384   37.32  0.001400  ( 0.011080 -0.025035 -0.025504)
 78:   1776.88   0.081270  410.71  0.014273  ( 0.067018 -0.041113 -0.089952)
 79:   1791.62   0.018088   91.41  0.003151  ( 0.050219 -0.021225  0.013348)
 80:   2987.94   0.001513    7.65  0.000158  ( 0.005622  0.009557 -0.005921)
 81:   3052.92   0.000829    4.19  0.000085  ( 0.001924 -0.007182  0.005427)
 82:   3071.44   0.000895    4.52  0.000091  (-0.005320 -0.007527 -0.002439)
 83:   3077.63   0.001937    9.79  0.000196  ( 0.001749 -0.002686  0.013642)
 84:   3083.75   0.005380   27.19  0.000544  (-0.021458  0.008385 -0.003703)
 85:   3086.29   0.004107   20.75  0.000415  (-0.010612  0.006290 -0.016219)
 86:   3089.75   0.000373    1.88  0.000038  (-0.003213  0.003155  0.004170)
 87:   3121.42   0.000139    0.70  0.000014  ( 0.002399  0.002499  0.001392)
 88:   3139.19   0.001742    8.81  0.000173  (-0.009833  0.006134 -0.006236)
 89:   3157.89   0.001641    8.30  0.000162  (-0.008864 -0.009037  0.001400)
 90:   3170.56   0.000346    1.75  0.000034  ( 0.004425 -0.002455 -0.002911)
 91:   3185.81   0.000894    4.52  0.000088  (-0.003314  0.001488  0.008626)
 92:   3196.63   0.000018    0.09  0.000002  ( 0.001110 -0.000595  0.000407)
 93:   3245.13   0.000396    2.00  0.000038  ( 0.001413 -0.001964  0.005678)
 94:   3349.09   0.010991   55.55  0.001024  ( 0.021471  0.021312 -0.010437)
 95:   3426.51   0.020450  103.34  0.001862  ( 0.035740 -0.010315  0.021877)
 96:   3474.85   0.026058  131.69  0.002340  ( 0.013532 -0.035672 -0.029741)
 97:   3618.00   0.018688   94.44  0.001612  (-0.004303  0.003177  0.039790)
 98:   3646.18   0.009788   49.47  0.000838  ( 0.021067 -0.016497 -0.011037)

--------------------------
THERMOCHEMISTRY AT 298.15K
--------------------------

Temperature         ... 298.15 K
Pressure            ... 1.00 atm
Total Mass          ... 201.27 AMU

Throughout the following assumptions are being made:
  (1) The electronic state is orbitally nondegenerate
      but the spin degeneracy is treated
  (2) There are no thermally accessible electronically excited states
  (3) Hindered rotations indicated by low frequency modes are not
      treated as such but are treated as vibrations and this may
      cause some error
  (4) All equations used are the standard statistical mechanics
      equations for an ideal gas
  (5) All vibrations are strictly harmonic

freq.      17.00  E(vib)   ...       0.57
freq.      26.63  E(vib)   ...       0.56
freq.      40.06  E(vib)   ...       0.54
freq.      59.42  E(vib)   ...       0.51
freq.      69.80  E(vib)   ...       0.50
freq.      82.21  E(vib)   ...       0.48
freq.      92.73  E(vib)   ...       0.47
freq.     111.72  E(vib)   ...       0.45
freq.     122.13  E(vib)   ...       0.43
freq.     130.54  E(vib)   ...       0.43
freq.     141.94  E(vib)   ...       0.41
freq.     154.92  E(vib)   ...       0.40
freq.     180.55  E(vib)   ...       0.37
freq.     221.92  E(vib)   ...       0.33
freq.     252.04  E(vib)   ...       0.30
freq.     294.65  E(vib)   ...       0.27
freq.     318.38  E(vib)   ...       0.25
freq.     346.59  E(vib)   ...       0.23
freq.     383.46  E(vib)   ...       0.20
freq.     410.55  E(vib)   ...       0.19
freq.     475.54  E(vib)   ...       0.15
freq.     488.08  E(vib)   ...       0.15
freq.     511.57  E(vib)   ...       0.14
freq.     547.74  E(vib)   ...       0.12
freq.     572.57  E(vib)   ...       0.11
freq.     656.85  E(vib)   ...       0.08
freq.     670.10  E(vib)   ...       0.08
freq.     707.22  E(vib)   ...       0.07
freq.     749.03  E(vib)   ...       0.06
freq.     809.00  E(vib)   ...       0.05
freq.     849.90  E(vib)   ...       0.04
freq.     891.46  E(vib)   ...       0.03
freq.     919.84  E(vib)   ...       0.03
freq.     945.17  E(vib)   ...       0.03
freq.    1001.79  E(vib)   ...       0.02
freq.    1014.25  E(vib)   ...       0.02
freq.    1019.40  E(vib)   ...       0.02
freq.    1028.86  E(vib)   ...       0.02
freq.    1065.17  E(vib)   ...       0.02
freq.    1066.61  E(vib)   ...       0.02
freq.    1067.91  E(vib)   ...       0.02
freq.    1093.38  E(vib)   ...       0.02
freq.    1107.03  E(vib)   ...       0.02
freq.    1156.47  E(vib)   ...       0.01
freq.    1161.84  E(vib)   ...       0.01
freq.    1177.42  E(vib)   ...       0.01
freq.    1183.90  E(vib)   ...       0.01
freq.    1220.67  E(vib)   ...       0.01
freq.    1236.48  E(vib)   ...       0.01
freq.    1272.14  E(vib)   ...       0.01
freq.    1279.75  E(vib)   ...       0.01
freq.    1299.06  E(vib)   ...       0.01
freq.    1321.51  E(vib)   ...       0.01
freq.    1342.92  E(vib)   ...       0.01
freq.    1371.15  E(vib)   ...       0.01
freq.    1391.73  E(vib)   ...       0.00
freq.    1410.48  E(vib)   ...       0.00
freq.    1412.07  E(vib)   ...       0.00
freq.    1416.98  E(vib)   ...       0.00
freq.    1451.88  E(vib)   ...       0.00
freq.    1464.63  E(vib)   ...       0.00
freq.    1473.34  E(vib)   ...       0.00
freq.    1488.67  E(vib)   ...       0.00
freq.    1490.80  E(vib)   ...       0.00
freq.    1501.33  E(vib)   ...       0.00
freq.    1502.93  E(vib)   ...       0.00
freq.    1509.73  E(vib)   ...       0.00
freq.    1511.87  E(vib)   ...       0.00
freq.    1541.55  E(vib)   ...       0.00
freq.    1593.01  E(vib)   ...       0.00
freq.    1633.68  E(vib)   ...       0.00
freq.    1645.90  E(vib)   ...       0.00
freq.    1776.88  E(vib)   ...       0.00
freq.    1791.62  E(vib)   ...       0.00
freq.    2987.94  E(vib)   ...       0.00
freq.    3052.92  E(vib)   ...       0.00
freq.    3071.44  E(vib)   ...       0.00
freq.    3077.63  E(vib)   ...       0.00
freq.    3083.75  E(vib)   ...       0.00
freq.    3086.29  E(vib)   ...       0.00
freq.    3089.75  E(vib)   ...       0.00
freq.    3121.42  E(vib)   ...       0.00
freq.    3139.19  E(vib)   ...       0.00
freq.    3157.89  E(vib)   ...       0.00
freq.    3170.56  E(vib)   ...       0.00
freq.    3185.81  E(vib)   ...       0.00
freq.    3196.63  E(vib)   ...       0.00
freq.    3245.13  E(vib)   ...       0.00
freq.    3349.09  E(vib)   ...       0.00
freq.    3426.51  E(vib)   ...       0.00
freq.    3474.85  E(vib)   ...       0.00
freq.    3618.00  E(vib)   ...       0.00
freq.    3646.18  E(vib)   ...       0.00

------------
INNER ENERGY
------------

The inner energy is: U= E(el) + E(ZPE) + E(vib) + E(rot) + E(trans)
    E(el)   - is the total energy from the electronic structure calculation
              = E(kin-el) + E(nuc-el) + E(el-el) + E(nuc-nuc)
    E(ZPE)  - the the zero temperature vibrational energy from the frequency calculation
    E(vib)  - the the finite temperature correction to E(ZPE) due to population
              of excited vibrational states
    E(rot)  - is the rotational thermal energy
    E(trans)- is the translational thermal energy

Summary of contributions to the inner energy U:
Electronic energy                ...   -668.79905870 Eh
Zero point energy                ...      0.29144382 Eh     182.88 kcal/mol
Thermal vibrational correction   ...      0.01491362 Eh       9.36 kcal/mol
Thermal rotational correction    ...      0.00141627 Eh       0.89 kcal/mol
Thermal translational correction ...      0.00141627 Eh       0.89 kcal/mol
-----------------------------------------------------------------------
Total thermal energy                   -668.48986872 Eh

Summary of corrections to the electronic energy:
(perhaps to be used in another calculation)
Total thermal correction                  0.01774616 Eh      11.14 kcal/mol
Non-thermal (ZPE) correction              0.29144382 Eh     182.88 kcal/mol
-----------------------------------------------------------------------
Total correction                          0.30918998 Eh     194.02 kcal/mol

--------
ENTHALPY
--------

The enthalpy is H = U + kB*T
                kB is Boltzmann's constant
Total free energy                 ...   -668.48986872 Eh
Thermal Enthalpy correction       ...      0.00094421 Eh       0.59 kcal/mol
-----------------------------------------------------------------------
Total Enthalpy                    ...   -668.48892451 Eh

Note: Only C1 symmetry has been detected, increase convergence thresholds
      if your molecule has a higher symmetry. Symmetry factor of 1.0 is
      used for the rotational entropy correction.

Note: Rotational entropy computed according to Herzberg

Rotational constants in cm-1:     0.019659     0.013867     0.009252

                             ****ORCA TERMINATED NORMALLY****
TOTAL RUN TIME: 0 days 0 hours 35 minutes 5 seconds 550 msec
