                         Program Version 5.0.4 -  RELEASE  -
|  1> ! B3LYP EPR-II OPT
|  2> %pal nprocs 16 end
|  3> *XYZFile 1 2 model.xyz
|  4>
|  5>                          ****END OF INPUT****
 Total Charge           Charge          ....    1
 Multiplicity           Mult            ....    2
 Number of Electrons    NEL             ....  109
FINAL SINGLE POINT ENERGY      -668.576983448174
FINAL SINGLE POINT ENERGY      -668.578386811587
FINAL SINGLE POINT ENERGY      -668.578447263398
FINAL SINGLE POINT ENERGY      -668.578467518098
FINAL SINGLE POINT ENERGY      -668.578484162880
FINAL SINGLE POINT ENERGY      -668.578498281746
FINAL SINGLE POINT ENERGY      -668.578505745347
FINAL SINGLE POINT ENERGY      -668.578518642541
FINAL SINGLE POINT ENERGY      -668.578535950907
FINAL SINGLE POINT ENERGY      -668.578552057349
FINAL SINGLE POINT ENERGY      -668.578587210350
FINAL SINGLE POINT ENERGY      -668.578598997227
FINAL SINGLE POINT ENERGY      -668.578609469092
FINAL SINGLE POINT ENERGY      -668.578623335083
FINAL SINGLE POINT ENERGY      -668.578638086905
FINAL SINGLE POINT ENERGY      -668.578652687349
FINAL SINGLE POINT ENERGY      -668.578665938972
FINAL SINGLE POINT ENERGY      -668.578675180321
FINAL SINGLE POINT ENERGY      -668.578678451808
                    ***********************HURRAY********************

CARTESIAN COORDINATES (ANGSTROEM)
---------------------------------
  N     -7.822340    0.946351    0.093324
  C     -6.374810    0.876620    0.229065
  C     -6.060401    0.858782    1.736982
  O     -6.748532    1.511826    2.526045
  C     -5.648639    2.055344   -0.480070
  C     -6.064429    3.443418    0.034922
  C     -5.477860    4.569639   -0.848616
  C     -5.865909    5.917308   -0.353552
  N     -5.635975    7.086590   -1.252783
  H     -6.159584    7.910954   -0.937636
  H     -5.941115    6.869246   -2.209527
  H     -8.343312    1.146531    0.936513
  C     -8.453423    0.657686   -1.090181
  N     -4.968041    0.132565    2.098022
  H     -4.540870   -0.457876    1.399439
  O     -7.817780    0.413513   -2.116171
  H     -4.641321    7.354989   -1.308604
  C     -4.521587   -0.003110    3.484539
  H     -4.743731   -1.002592    3.871870
  H     -3.445492    0.177844    3.556354
  H     -5.055697    0.732873    4.085123
  C     -9.975826    0.654063   -1.053299
  H    -10.349933    1.325044   -1.830836
  H    -10.320980   -0.354180   -1.299210
  H    -10.391142    0.946607   -0.085455
  H     -6.024891   -0.044087   -0.252143
  H     -4.565482    1.919625   -0.368294
  H     -5.883414    1.963341   -1.545463
  H     -5.739281    3.583925    1.071043
  H     -7.155985    3.520983    0.030765
  H     -4.374908    4.483230   -0.867213
  H     -5.807319    4.439880   -1.891138
  H     -5.982253    6.195028    0.688616

 Multiplicity           Mult            ....    2
 Number of Electrons    NEL             ....  109
 Basis Dimension        Dim             ....  371

ORBITAL ENERGIES
----------------
                 SPIN UP ORBITALS
  NO   OCC          E(Eh)            E(eV)
   0   1.0000     -19.205210      -522.6003
   1   1.0000     -19.184776      -522.0443
   2   1.0000     -14.658661      -398.8825
   3   1.0000     -14.456046      -393.3690
   4   1.0000     -14.438468      -392.8907
   5   1.0000     -10.438122      -284.0357
   6   1.0000     -10.388103      -282.6746
   7   1.0000     -10.372826      -282.2589
   8   1.0000     -10.360501      -281.9236
   9   1.0000     -10.332425      -281.1596
  10   1.0000     -10.314538      -280.6728
  11   1.0000     -10.298816      -280.2450
  12   1.0000     -10.296616      -280.1852
  13   1.0000     -10.263322      -279.2792
  14   1.0000      -1.206043       -32.8181
  15   1.0000      -1.128972       -30.7209
  16   1.0000      -1.108098       -30.1529
  17   1.0000      -1.013751       -27.5856
  18   1.0000      -1.004223       -27.3263
  19   1.0000      -0.962223       -26.1834
  20   1.0000      -0.891475       -24.2583
  21   1.0000      -0.846792       -23.0424
  22   1.0000      -0.809602       -22.0304
  23   1.0000      -0.804844       -21.9009
  24   1.0000      -0.784543       -21.3485
  25   1.0000      -0.783152       -21.3107
  26   1.0000      -0.750869       -20.4322
  27   1.0000      -0.716847       -19.5064
  28   1.0000      -0.680577       -18.5194
  29   1.0000      -0.678645       -18.4669
  30   1.0000      -0.656999       -17.8778
  31   1.0000      -0.625144       -17.0110
  32   1.0000      -0.609505       -16.5855
  33   1.0000      -0.592374       -16.1193
  34   1.0000      -0.574039       -15.6204
  35   1.0000      -0.553141       -15.0517
  36   1.0000      -0.548294       -14.9198
  37   1.0000      -0.543328       -14.7847
  38   1.0000      -0.531154       -14.4534
  39   1.0000      -0.525338       -14.2952
  40   1.0000      -0.515991       -14.0408
  41   1.0000      -0.495795       -13.4913
  42   1.0000      -0.487663       -13.2700
  43   1.0000      -0.481013       -13.0890
  44   1.0000      -0.477474       -12.9927
  45   1.0000      -0.471645       -12.8341
  46   1.0000      -0.461500       -12.5580
  47   1.0000      -0.456120       -12.4116
  48   1.0000      -0.455061       -12.3828
  49   1.0000      -0.426755       -11.6126
  50   1.0000      -0.410479       -11.1697
  51   1.0000      -0.356192        -9.6925
  52   1.0000      -0.351865        -9.5747
  53   1.0000      -0.336110        -9.1460
  54   1.0000      -0.330523        -8.9940
  55   0.0000      -0.187562        -5.1038
  56   0.0000      -0.116393        -3.1672
  57   0.0000      -0.106686        -2.9031
  58   0.0000      -0.087222        -2.3734
  59   0.0000      -0.082732        -2.2512

                 SPIN DOWN ORBITALS
  NO   OCC          E(Eh)            E(eV)
   0   1.0000     -19.205208      -522.6003
   1   1.0000     -19.184774      -522.0442
   2   1.0000     -14.659384      -398.9021
   3   1.0000     -14.456042      -393.3689
   4   1.0000     -14.438465      -392.8906
   5   1.0000     -10.423213      -283.6301
   6   1.0000     -10.388103      -282.6746
   7   1.0000     -10.372826      -282.2589
   8   1.0000     -10.361148      -281.9412
   9   1.0000     -10.332431      -281.1597
  10   1.0000     -10.314346      -280.6676
  11   1.0000     -10.298816      -280.2450
  12   1.0000     -10.296611      -280.1850
  13   1.0000     -10.263321      -279.2792
  14   1.0000      -1.201913       -32.7057
  15   1.0000      -1.128968       -30.7208
  16   1.0000      -1.108094       -30.1528
  17   1.0000      -1.013745       -27.5854
  18   1.0000      -1.004190       -27.3254
  19   1.0000      -0.950669       -25.8690
  20   1.0000      -0.884543       -24.0696
  21   1.0000      -0.839194       -22.8356
  22   1.0000      -0.807098       -21.9623
  23   1.0000      -0.802821       -21.8459
  24   1.0000      -0.782858       -21.3027
  25   1.0000      -0.776450       -21.1283
  26   1.0000      -0.749341       -20.3906
  27   1.0000      -0.715515       -19.4702
  28   1.0000      -0.678715       -18.4688
  29   1.0000      -0.672775       -18.3071
  30   1.0000      -0.655241       -17.8300
  31   1.0000      -0.623912       -16.9775
  32   1.0000      -0.600221       -16.3328
  33   1.0000      -0.587106       -15.9760
  34   1.0000      -0.573154       -15.5963
  35   1.0000      -0.552643       -15.0382
  36   1.0000      -0.546825       -14.8799
  37   1.0000      -0.540822       -14.7165
  38   1.0000      -0.529974       -14.4213
  39   1.0000      -0.523826       -14.2540
  40   1.0000      -0.514391       -13.9973
  41   1.0000      -0.495472       -13.4825
  42   1.0000      -0.486512       -13.2387
  43   1.0000      -0.480391       -13.0721
  44   1.0000      -0.477388       -12.9904
  45   1.0000      -0.471317       -12.8252
  46   1.0000      -0.461196       -12.5498
  47   1.0000      -0.455470       -12.3940
  48   1.0000      -0.454628       -12.3711
  49   1.0000      -0.426467       -11.6048
  50   1.0000      -0.356180        -9.6921
  51   1.0000      -0.351868        -9.5748
  52   1.0000      -0.336081        -9.1452
  53   1.0000      -0.330514        -8.9937
  54   0.0000      -0.257327        -7.0022
  55   0.0000      -0.185912        -5.0589
  56   0.0000      -0.114945        -3.1278
  57   0.0000      -0.102432        -2.7873
  58   0.0000      -0.082738        -2.2514

MULLIKEN ATOMIC CHARGES AND SPIN POPULATIONS
--------------------------------------------
   0 N :   -0.135512    0.000120
   1 C :   -0.104234    0.000060
   2 C :    0.080663   -0.000035
   3 O :   -0.327303    0.000078
   4 C :   -0.269564   -0.000577
   5 C :   -0.270648    0.010740
   6 C :   -0.253713   -0.056379
   7 C :   -0.130445    0.986209
   8 N :   -0.348924   -0.036940
   9 H :    0.338463    0.003933
  10 H :    0.335683    0.010074
  11 H :    0.257670   -0.000013
  12 C :    0.171056   -0.000101
  13 N :   -0.104914    0.000140
  14 H :    0.237427   -0.000005
  15 O :   -0.317041    0.000082
  16 H :    0.333829    0.038772
  17 C :   -0.448534    0.000002
  18 H :    0.180559    0.000009
  19 H :    0.165235    0.000008
  20 H :    0.198759   -0.000000
  21 C :   -0.541990    0.000055
  22 H :    0.184150   -0.000000
  23 H :    0.199530   -0.000002
  24 H :    0.150401   -0.000002
  25 H :    0.157459    0.000020
  26 H :    0.144847    0.000552
  27 H :    0.185323    0.000291
  28 H :    0.178574   -0.000531
  29 H :    0.178708   -0.001100
  30 H :    0.186268    0.062721
  31 H :    0.173165    0.021547
  32 H :    0.215052   -0.039729
Sum of atomic charges         :    1.0000000

LOEWDIN ATOMIC CHARGES AND SPIN POPULATIONS
-------------------------------------------
   0 N :    0.057257    0.000072
   1 C :   -0.040250   -0.000082
   2 C :   -0.100696   -0.000001
   3 O :   -0.195335    0.000065
   4 C :   -0.049726    0.000622
   5 C :   -0.050983    0.007579
   6 C :   -0.085006    0.012895
   7 C :    0.030197    0.849627
   8 N :    0.350015    0.000264
   9 H :    0.132088    0.004229
  10 H :    0.133373    0.010574
  11 H :    0.092165   -0.000000
  12 C :   -0.101809   -0.000013
  13 N :    0.050034    0.000119
  14 H :    0.082997    0.000000
  15 O :   -0.191206    0.000076
  16 H :    0.130972    0.034920
  17 C :    0.020026    0.000002
  18 H :    0.038722    0.000006
  19 H :    0.034800    0.000006
  20 H :    0.054691    0.000000
  21 C :   -0.035675    0.000029
  22 H :    0.054973   -0.000001
  23 H :    0.061962   -0.000000
  24 H :    0.035632   -0.000001
  25 H :    0.064618    0.000028
  26 H :    0.050037    0.000596
  27 H :    0.062095    0.000208
  28 H :    0.056390   -0.000142
  29 H :    0.057909   -0.000401
  30 H :    0.074163    0.052293
  31 H :    0.063453    0.019153
  32 H :    0.062116    0.007280

  Mayer bond orders larger than 0.100000
B(  0-N ,  1-C ) :   1.0172 B(  0-N , 11-H ) :   0.8975 B(  0-N , 12-C ) :   1.1904
B(  1-C ,  2-C ) :   0.8952 B(  1-C ,  4-C ) :   0.9354 B(  1-C , 15-O ) :   0.1272
B(  1-C , 25-H ) :   0.9748 B(  2-C ,  3-O ) :   1.8625 B(  2-C , 13-N ) :   1.2069
B(  4-C ,  5-C ) :   0.9630 B(  4-C , 26-H ) :   0.9706 B(  4-C , 27-H ) :   0.9545
B(  5-C ,  6-C ) :   0.9443 B(  5-C , 28-H ) :   0.9635 B(  5-C , 29-H ) :   0.9652
B(  6-C ,  7-C ) :   1.0037 B(  6-C , 30-H ) :   0.9381 B(  6-C , 31-H ) :   0.9528
B(  7-C ,  8-N ) :   0.8978 B(  7-C , 32-H ) :   0.9393 B(  8-N ,  9-H ) :   0.8844
B(  8-N , 10-H ) :   0.8821 B(  8-N , 16-H ) :   0.8707 B( 12-C , 15-O ) :   1.8663
B( 12-C , 21-C ) :   0.9024 B( 13-N , 14-H ) :   0.9262 B( 13-N , 17-C ) :   0.9641
B( 17-C , 18-H ) :   0.9539 B( 17-C , 19-H ) :   0.9585 B( 17-C , 20-H ) :   0.9443
B( 21-C , 22-H ) :   0.9569 B( 21-C , 23-H ) :   0.9506 B( 21-C , 24-H ) :   0.9743

FINAL SINGLE POINT ENERGY      -668.578681048206

DIPOLE MOMENT
-------------
                                X             Y             Z
Electronic contribution:     -1.92617      -2.69299      -0.47940
Nuclear contribution   :      4.23457       9.92477      -0.92499
                        -----------------------------------------
Total Dipole Moment    :      2.30840       7.23179      -1.40439
                        -----------------------------------------
Magnitude (a.u.)       :      7.72009
Magnitude (Debye)      :     19.62291

Rotational constants in cm-1:     0.019917     0.012955     0.008892
Rotational constants in MHz :   597.086466   388.385626   266.567141

                             ****ORCA TERMINATED NORMALLY****
TOTAL RUN TIME: 0 days 0 hours 24 minutes 47 seconds 789 msec
