                         Program Version 5.0.4 -  RELEASE  -
|  1> ! B3LYP EPR-II AUTOAUX
|  2> %pal nprocs 16 end
|  3> *XYZFile 0 2 opt.xyz
|  4> %EPRNMR
|  5>         GTENSOR   TRUE
|  6>         NUCLEI    = 1,4,6,7,9,10,14,16,18,19 {SHIFT, AISO, ADIP, AORB}
|  7>         ORI       GIAO
|  8> END
|  9>
| 10>                          ****END OF INPUT****

CARTESIAN COORDINATES (ANGSTROEM)
---------------------------------
  N      1.511828    1.099056    0.007227
  C      0.795964   -0.066582    0.217079
  C      1.623390   -1.254189   -0.080225
  O      2.806265   -1.118683   -0.451568
  C     -0.631733   -0.083047    0.686405
  H     -0.853583   -1.036449    1.173234
  H     -0.777382    0.692609    1.441564
  C     -1.662931    0.139986   -0.445645
  H     -1.670421    1.185390   -0.761255
  H     -1.413477   -0.463585   -1.328310
  C     -3.062984   -0.272776   -0.024288
  O     -4.016332    0.275427   -0.820268
  O     -3.335022   -1.026417    0.890804
  H      2.467228    0.887421   -0.279648
  C      1.118253    2.422170    0.110753
  N      1.034026   -2.489373    0.039286
  H     -4.869739   -0.060899   -0.500930
  H      0.124337   -2.552855    0.466892
  O     -0.026464    2.767138    0.399406
  C      2.219664    3.437732   -0.166347
  H      1.911945    4.063356   -1.009260
  H      2.315836    4.088327    0.707405
  H      3.189454    2.985480   -0.387597
  C      1.803352   -3.716056   -0.130703
  H      2.341736   -3.994324    0.784167
  H      1.128115   -4.528976   -0.408710
  H      2.536351   -3.566499   -0.924263

 Total Charge           Charge          ....    0
 Multiplicity           Mult            ....    2
 Number of Electrons    NEL             ....  107
 Basis Dimension        Dim             ....  329

ORBITAL ENERGIES
----------------
                 SPIN UP ORBITALS
  NO   OCC          E(Eh)            E(eV)
   0   1.0000     -19.197443      -522.3890
   1   1.0000     -19.145137      -520.9657
   2   1.0000     -19.123932      -520.3886
   3   1.0000     -19.112607      -520.0805
   4   1.0000     -14.386669      -391.4812
   5   1.0000     -14.365338      -390.9007
   6   1.0000     -10.336134      -281.2605
   7   1.0000     -10.307904      -280.4923
   8   1.0000     -10.297887      -280.2198
   9   1.0000     -10.254225      -279.0317
  10   1.0000     -10.220074      -278.1024
  11   1.0000     -10.211536      -277.8700
  12   1.0000     -10.209663      -277.8191
  13   1.0000     -10.198369      -277.5117
  14   1.0000      -1.112815       -30.2812
  15   1.0000      -1.049154       -28.5489
  16   1.0000      -1.034260       -28.1436
  17   1.0000      -1.022683       -27.8286
  18   1.0000      -0.949322       -25.8324
  19   1.0000      -0.924124       -25.1467
  20   1.0000      -0.814724       -22.1698
  21   1.0000      -0.765571       -20.8323
  22   1.0000      -0.733563       -19.9613
  23   1.0000      -0.700312       -19.0565
  24   1.0000      -0.668559       -18.1924
  25   1.0000      -0.606521       -16.5043
  26   1.0000      -0.598498       -16.2860
  27   1.0000      -0.567435       -15.4407
  28   1.0000      -0.554762       -15.0958
  29   1.0000      -0.506020       -13.7695
  30   1.0000      -0.492344       -13.3974
  31   1.0000      -0.487358       -13.2617
  32   1.0000      -0.482908       -13.1406
  33   1.0000      -0.467786       -12.7291
  34   1.0000      -0.460269       -12.5246
  35   1.0000      -0.453394       -12.3375
  36   1.0000      -0.448252       -12.1976
  37   1.0000      -0.433674       -11.8009
  38   1.0000      -0.421105       -11.4589
  39   1.0000      -0.415549       -11.3077
  40   1.0000      -0.409473       -11.1423
  41   1.0000      -0.406563       -11.0631
  42   1.0000      -0.398357       -10.8398
  43   1.0000      -0.385579       -10.4921
  44   1.0000      -0.380443       -10.3524
  45   1.0000      -0.379228       -10.3193
  46   1.0000      -0.363064        -9.8795
  47   1.0000      -0.330317        -8.9884
  48   1.0000      -0.322813        -8.7842
  49   1.0000      -0.289276        -7.8716
  50   1.0000      -0.272560        -7.4167
  51   1.0000      -0.267303        -7.2737
  52   1.0000      -0.265507        -7.2248
  53   1.0000      -0.184268        -5.0142
  54   0.0000      -0.004841        -0.1317
  55   0.0000       0.005309         0.1445
  56   0.0000       0.008935         0.2431
  57   0.0000       0.019031         0.5179
  58   0.0000       0.024384         0.6635

                 SPIN DOWN ORBITALS
  NO   OCC          E(Eh)            E(eV)
   0   1.0000     -19.197373      -522.3871
   1   1.0000     -19.145134      -520.9656
   2   1.0000     -19.121304      -520.3171
   3   1.0000     -19.110143      -520.0134
   4   1.0000     -14.385093      -391.4383
   5   1.0000     -14.363778      -390.8583
   6   1.0000     -10.336052      -281.2583
   7   1.0000     -10.307387      -280.4783
   8   1.0000     -10.298255      -280.2298
   9   1.0000     -10.244331      -278.7624
  10   1.0000     -10.220156      -278.1046
  11   1.0000     -10.210601      -277.8446
  12   1.0000     -10.210247      -277.8349
  13   1.0000     -10.198468      -277.5144
  14   1.0000      -1.112672       -30.2774
  15   1.0000      -1.044108       -28.4116
  16   1.0000      -1.029939       -28.0261
  17   1.0000      -1.022617       -27.8268
  18   1.0000      -0.942048       -25.6344
  19   1.0000      -0.920436       -25.0463
  20   1.0000      -0.809129       -22.0175
  21   1.0000      -0.760301       -20.6889
  22   1.0000      -0.730613       -19.8810
  23   1.0000      -0.698238       -19.0000
  24   1.0000      -0.663112       -18.0442
  25   1.0000      -0.604339       -16.4449
  26   1.0000      -0.596509       -16.2318
  27   1.0000      -0.564272       -15.3546
  28   1.0000      -0.550878       -14.9902
  29   1.0000      -0.504642       -13.7320
  30   1.0000      -0.491204       -13.3663
  31   1.0000      -0.486039       -13.2258
  32   1.0000      -0.481923       -13.1138
  33   1.0000      -0.458796       -12.4845
  34   1.0000      -0.457242       -12.4422
  35   1.0000      -0.449376       -12.2281
  36   1.0000      -0.443777       -12.0758
  37   1.0000      -0.431982       -11.7548
  38   1.0000      -0.415469       -11.3055
  39   1.0000      -0.411350       -11.1934
  40   1.0000      -0.407306       -11.0834
  41   1.0000      -0.403107       -10.9691
  42   1.0000      -0.397424       -10.8145
  43   1.0000      -0.380319       -10.3490
  44   1.0000      -0.376638       -10.2489
  45   1.0000      -0.373937       -10.1753
  46   1.0000      -0.360447        -9.8083
  47   1.0000      -0.330276        -8.9873
  48   1.0000      -0.303173        -8.2498
  49   1.0000      -0.288827        -7.8594
  50   1.0000      -0.266709        -7.2575
  51   1.0000      -0.264411        -7.1950
  52   1.0000      -0.254788        -6.9331
  53   0.0000      -0.091748        -2.4966
  54   0.0000      -0.004475        -0.1218
  55   0.0000       0.008956         0.2437
  56   0.0000       0.018532         0.5043
  57   0.0000       0.019466         0.5297

MULLIKEN ATOMIC CHARGES AND SPIN POPULATIONS
--------------------------------------------
   0 N :   -0.029224    0.063722
   1 C :    0.145886    0.653907
   2 C :    0.017158   -0.011944
   3 O :   -0.377737    0.092703
   4 C :   -0.320056   -0.041339
   5 H :    0.131993    0.004418
   6 H :    0.194544    0.012260
   7 C :   -0.274080    0.026006
   8 H :    0.216759   -0.000421
   9 H :    0.178794   -0.001126
  10 C :    0.107423    0.005438
  11 O :   -0.267177    0.000579
  12 O :   -0.259014   -0.000252
  13 H :    0.252583   -0.003947
  14 C :    0.111873    0.033480
  15 N :   -0.114663    0.062699
  16 H :    0.288040    0.001059
  17 H :    0.225657   -0.001916
  18 O :   -0.288515    0.095981
  19 C :   -0.543030   -0.004152
  20 H :    0.188916    0.004840
  21 H :    0.189755    0.004413
  22 H :    0.152833   -0.000107
  23 C :   -0.444162   -0.005810
  24 H :    0.171021    0.007501
  25 H :    0.148665    0.001240
  26 H :    0.195759    0.000767
Sum of atomic charges         :    0.0000000

LOEWDIN ATOMIC CHARGES AND SPIN POPULATIONS
-------------------------------------------
   0 N :    0.128934    0.077070
   1 C :   -0.044355    0.529879
   2 C :   -0.110606    0.031475
   3 O :   -0.225535    0.089548
   4 C :   -0.040963    0.007073
   5 H :    0.049551    0.003381
   6 H :    0.071347    0.009800
   7 C :   -0.031665    0.031201
   8 H :    0.071338    0.000021
   9 H :    0.069056   -0.000010
  10 C :   -0.084684    0.003646
  11 O :    0.017594    0.001524
  12 O :   -0.149230    0.000106
  13 H :    0.103779    0.002155
  14 C :   -0.097273    0.048192
  15 N :    0.035104    0.058695
  16 H :    0.101453    0.000637
  17 H :    0.073601    0.000810
  18 O :   -0.170563    0.091059
  19 C :   -0.038085   -0.000115
  20 H :    0.056269    0.003575
  21 H :    0.056778    0.003394
  22 H :    0.035592   -0.000187
  23 C :    0.008593    0.000252
  24 H :    0.032679    0.005118
  25 H :    0.031866    0.000950
  26 H :    0.049424    0.000751

  Mayer bond orders larger than 0.100000
B(  0-N ,  1-C ) :   1.2441 B(  0-N , 13-H ) :   0.8693 B(  0-N , 14-C ) :   1.1598
B(  1-C ,  2-C ) :   1.0683 B(  1-C ,  4-C ) :   0.9792 B(  2-C ,  3-O ) :   1.7357
B(  2-C , 15-N ) :   1.1809 B(  4-C ,  5-H ) :   0.9712 B(  4-C ,  6-H ) :   0.9567
B(  4-C ,  7-C ) :   0.9371 B(  7-C ,  8-H ) :   0.9506 B(  7-C ,  9-H ) :   0.9611
B(  7-C , 10-C ) :   0.8937 B( 10-C , 11-O ) :   1.1433 B( 10-C , 12-O ) :   1.9585
B( 11-O , 16-H ) :   0.8946 B( 14-C , 18-O ) :   1.8945 B( 14-C , 19-C ) :   0.8981
B( 15-N , 17-H ) :   0.9258 B( 15-N , 23-C ) :   0.9727 B( 19-C , 20-H ) :   0.9542
B( 19-C , 21-H ) :   0.9562 B( 19-C , 22-H ) :   0.9742 B( 23-C , 24-H ) :   0.9539
B( 23-C , 25-H ) :   0.9668 B( 23-C , 26-H ) :   0.9461

FINAL SINGLE POINT ENERGY      -722.867399151083

DIPOLE MOMENT
-------------
                                X             Y             Z
Electronic contribution:     -6.26507       1.65890       0.78611
Nuclear contribution   :      6.25596      -2.14450      -1.07956
                        -----------------------------------------
Total Dipole Moment    :     -0.00910      -0.48560      -0.29345
                        -----------------------------------------
Magnitude (a.u.)       :      0.56746
Magnitude (Debye)      :      1.44236

Rotational constants in cm-1:     0.020723     0.016376     0.009651
Rotational constants in MHz :   621.273929   490.944382   289.341388

CHEMICAL SHIELDING SUMMARY (ppm)  --  Orbital contribution
----------------------------------------------------------

  Nucleus  Element    Isotropic     Anisotropy
  -------  -------  ------------   ------------
      0       N           86.269        123.303
      3       O           -9.832        549.774
      5       H           29.476          5.477
      6       H           28.423          5.865
      8       H           28.647          4.689
      9       H           29.989          4.754
     13       H           22.538          9.100
     15       N          157.428         78.776
     17       H           26.949          8.227
     18       O         -104.234       -509.853

                             ****ORCA TERMINATED NORMALLY****
TOTAL RUN TIME: 0 days 0 hours 4 minutes 28 seconds 324 msec
