                         Program Version 5.0.4 -  RELEASE  -
|  1> ! M062X def2-TZVP OPT FREQ
|  2> %pal nprocs 16 end
|  3> *XYZFile 0 2 opt.xyz
|  4>
|  5>                          ****END OF INPUT****
 Total Charge           Charge          ....    0
 Multiplicity           Mult            ....    2
 Number of Electrons    NEL             ....  107
FINAL SINGLE POINT ENERGY      -723.094619418012
FINAL SINGLE POINT ENERGY      -723.097770196494
FINAL SINGLE POINT ENERGY      -723.097841314022
FINAL SINGLE POINT ENERGY      -723.097873319937
FINAL SINGLE POINT ENERGY      -723.097816294115
FINAL SINGLE POINT ENERGY      -723.097918243004
FINAL SINGLE POINT ENERGY      -723.097969897950
FINAL SINGLE POINT ENERGY      -723.098012390676
FINAL SINGLE POINT ENERGY      -723.098025928965
FINAL SINGLE POINT ENERGY      -723.097893075433
FINAL SINGLE POINT ENERGY      -723.098145783149
FINAL SINGLE POINT ENERGY      -723.098144635465
FINAL SINGLE POINT ENERGY      -723.098155233228
FINAL SINGLE POINT ENERGY      -723.098166658352
FINAL SINGLE POINT ENERGY      -723.098170005257
FINAL SINGLE POINT ENERGY      -723.098172907145
FINAL SINGLE POINT ENERGY      -723.098175029466
FINAL SINGLE POINT ENERGY      -723.098175197580
FINAL SINGLE POINT ENERGY      -723.098174113133
                    ***********************HURRAY********************

CARTESIAN COORDINATES (ANGSTROEM)
---------------------------------
  N      1.533237    1.086107    0.072992
  C      0.815670   -0.065564    0.265645
  C      1.614958   -1.255121   -0.025942
  O      2.798116   -1.153953   -0.351640
  C     -0.602671   -0.073553    0.719503
  H     -0.810030   -0.997542    1.260965
  H     -0.770795    0.736282    1.427204
  C     -1.599936    0.069554   -0.431126
  H     -1.545325    1.070902   -0.859190
  H     -1.384262   -0.635312   -1.239672
  C     -3.011369   -0.186905    0.020120
  O     -3.899190    0.062538   -0.957176
  O     -3.339558   -0.583396    1.103712
  H      2.502864    0.894667   -0.160803
  C      1.090917    2.386784    0.076203
  N      1.007070   -2.466077    0.057383
  H     -4.778977   -0.129374   -0.601282
  H      0.052328   -2.533127    0.357271
  O     -0.074077    2.688854    0.231120
  C      2.168004    3.422872   -0.130124
  H      1.892414    4.040221   -0.984119
  H      2.194969    4.067194    0.748166
  H      3.154678    2.993802   -0.292169
  C      1.755764   -3.673276   -0.219604
  H      2.546604   -3.822927    0.516896
  H      1.076268   -4.521706   -0.195892
  H      2.220009   -3.608561   -1.203237

 Multiplicity           Mult            ....    2
 Number of Electrons    NEL             ....  107
 Basis Dimension        Dim             ....  512

ORBITAL ENERGIES
----------------
                 SPIN UP ORBITALS
  NO   OCC          E(Eh)            E(eV)
   0   1.0000     -19.677978      -535.4650
   1   1.0000     -19.624961      -534.0223
   2   1.0000     -19.609131      -533.5916
   3   1.0000     -19.594703      -533.1990
   4   1.0000     -14.803316      -402.8187
   5   1.0000     -14.779729      -402.1769
   6   1.0000     -10.681710      -290.6641
   7   1.0000     -10.659493      -290.0596
   8   1.0000     -10.645497      -289.6787
   9   1.0000     -10.602647      -288.5127
  10   1.0000     -10.572992      -287.7057
  11   1.0000     -10.558984      -287.3245
  12   1.0000     -10.558231      -287.3041
  13   1.0000     -10.550160      -287.0845
  14   1.0000      -1.246406       -33.9164
  15   1.0000      -1.185766       -32.2663
  16   1.0000      -1.168681       -31.8014
  17   1.0000      -1.150111       -31.2961
  18   1.0000      -1.068868       -29.0854
  19   1.0000      -1.040853       -28.3231
  20   1.0000      -0.923451       -25.1284
  21   1.0000      -0.869266       -23.6539
  22   1.0000      -0.834636       -22.7116
  23   1.0000      -0.796045       -21.6615
  24   1.0000      -0.761724       -20.7276
  25   1.0000      -0.694174       -18.8894
  26   1.0000      -0.685524       -18.6540
  27   1.0000      -0.654551       -17.8112
  28   1.0000      -0.641898       -17.4669
  29   1.0000      -0.593301       -16.1445
  30   1.0000      -0.584997       -15.9186
  31   1.0000      -0.574475       -15.6322
  32   1.0000      -0.568154       -15.4602
  33   1.0000      -0.555920       -15.1274
  34   1.0000      -0.541949       -14.7472
  35   1.0000      -0.538346       -14.6492
  36   1.0000      -0.528737       -14.3877
  37   1.0000      -0.510903       -13.9024
  38   1.0000      -0.498389       -13.5618
  39   1.0000      -0.495616       -13.4864
  40   1.0000      -0.486990       -13.2517
  41   1.0000      -0.478584       -13.0229
  42   1.0000      -0.469814       -12.7843
  43   1.0000      -0.457331       -12.4446
  44   1.0000      -0.455875       -12.4050
  45   1.0000      -0.451016       -12.2728
  46   1.0000      -0.428411       -11.6577
  47   1.0000      -0.407283       -11.0827
  48   1.0000      -0.396819       -10.7980
  49   1.0000      -0.367669       -10.0048
  50   1.0000      -0.351299        -9.5593
  51   1.0000      -0.347640        -9.4598
  52   1.0000      -0.338302        -9.2057
  53   1.0000      -0.234901        -6.3920
  54   0.0000       0.040093         1.0910
  55   0.0000       0.044422         1.2088
  56   0.0000       0.049802         1.3552
  57   0.0000       0.066193         1.8012
  58   0.0000       0.068458         1.8628

                 SPIN DOWN ORBITALS
  NO   OCC          E(Eh)            E(eV)
   0   1.0000     -19.677918      -535.4634
   1   1.0000     -19.624948      -534.0220
   2   1.0000     -19.607314      -533.5422
   3   1.0000     -19.592768      -533.1463
   4   1.0000     -14.802365      -402.7928
   5   1.0000     -14.778693      -402.1487
   6   1.0000     -10.681639      -290.6622
   7   1.0000     -10.659489      -290.0594
   8   1.0000     -10.645966      -289.6915
   9   1.0000     -10.597730      -288.3789
  10   1.0000     -10.573043      -287.7071
  11   1.0000     -10.558802      -287.3196
  12   1.0000     -10.558145      -287.3017
  13   1.0000     -10.550222      -287.0861
  14   1.0000      -1.246225       -33.9115
  15   1.0000      -1.180642       -32.1269
  16   1.0000      -1.163810       -31.6689
  17   1.0000      -1.149997       -31.2930
  18   1.0000      -1.060505       -28.8578
  19   1.0000      -1.036622       -28.2079
  20   1.0000      -0.917128       -24.9563
  21   1.0000      -0.863847       -23.5065
  22   1.0000      -0.830891       -22.6097
  23   1.0000      -0.793690       -21.5974
  24   1.0000      -0.755152       -20.5487
  25   1.0000      -0.691217       -18.8090
  26   1.0000      -0.683158       -18.5897
  27   1.0000      -0.649747       -17.6805
  28   1.0000      -0.637345       -17.3430
  29   1.0000      -0.591337       -16.0911
  30   1.0000      -0.583688       -15.8830
  31   1.0000      -0.573069       -15.5940
  32   1.0000      -0.566816       -15.4239
  33   1.0000      -0.543206       -14.7814
  34   1.0000      -0.538871       -14.6634
  35   1.0000      -0.531756       -14.4698
  36   1.0000      -0.523640       -14.2490
  37   1.0000      -0.509463       -13.8632
  38   1.0000      -0.495743       -13.4898
  39   1.0000      -0.488864       -13.3027
  40   1.0000      -0.478683       -13.0256
  41   1.0000      -0.476942       -12.9782
  42   1.0000      -0.468914       -12.7598
  43   1.0000      -0.450043       -12.2463
  44   1.0000      -0.448513       -12.2047
  45   1.0000      -0.446926       -12.1615
  46   1.0000      -0.425961       -11.5910
  47   1.0000      -0.407240       -11.0816
  48   1.0000      -0.374480       -10.1901
  49   1.0000      -0.366721        -9.9790
  50   1.0000      -0.347050        -9.4437
  51   1.0000      -0.343732        -9.3534
  52   1.0000      -0.321661        -8.7528
  53   0.0000      -0.057445        -1.5632
  54   0.0000       0.042051         1.1443
  55   0.0000       0.047497         1.2925
  56   0.0000       0.060632         1.6499
  57   0.0000       0.065355         1.7784

MULLIKEN ATOMIC CHARGES AND SPIN POPULATIONS
--------------------------------------------
   0 N :   -0.319643    0.062730
   1 C :    0.088019    0.693866
   2 C :    0.384346   -0.023037
   3 O :   -0.462667    0.099046
   4 C :   -0.415520   -0.060888
   5 H :    0.177900    0.007762
   6 H :    0.205176    0.010949
   7 C :   -0.302050    0.021692
   8 H :    0.203399    0.000244
   9 H :    0.175894   -0.002724
  10 C :    0.350553    0.005496
  11 O :   -0.406270    0.000385
  12 O :   -0.329873    0.000142
  13 H :    0.273608   -0.005103
  14 C :    0.396951    0.027075
  15 N :   -0.370561    0.061677
  16 H :    0.335456    0.001227
  17 H :    0.246774   -0.002624
  18 O :   -0.397596    0.096936
  19 C :   -0.452213   -0.005640
  20 H :    0.162777    0.004451
  21 H :    0.163068    0.004135
  22 H :    0.134975    0.000515
  23 C :   -0.291774   -0.005828
  24 H :    0.154856    0.004783
  25 H :    0.135174    0.000057
  26 H :    0.159239    0.002675
Sum of atomic charges         :   -0.0000000

LOEWDIN ATOMIC CHARGES AND SPIN POPULATIONS
-------------------------------------------
   0 N :    0.198227    0.090252
   1 C :   -0.147176    0.477068
   2 C :   -0.459772    0.071284
   3 O :    0.023549    0.083749
   4 C :   -0.230602    0.040497
   5 H :    0.148711    0.004178
   6 H :    0.164484    0.006643
   7 C :   -0.221640    0.026615
   8 H :    0.164811    0.000485
   9 H :    0.157305    0.000061
  10 C :   -0.507086    0.003276
  11 O :    0.094929    0.001243
  12 O :    0.100593    0.000170
  13 H :    0.213691    0.001193
  14 C :   -0.455101    0.048824
  15 N :    0.092417    0.047679
  16 H :    0.198476    0.000793
  17 H :    0.180558    0.000263
  18 O :    0.081739    0.079027
  19 C :   -0.260085    0.003241
  20 H :    0.140631    0.002429
  21 H :    0.141774    0.002432
  22 H :    0.124499   -0.000129
  23 C :   -0.304642    0.004337
  24 H :    0.119768    0.002755
  25 H :    0.116775   -0.000043
  26 H :    0.123168    0.001678

  Mayer bond orders larger than 0.100000
B(  0-N ,  1-C ) :   1.1410 B(  0-N , 13-H ) :   0.8724 B(  0-N , 14-C ) :   1.1323
B(  1-C ,  2-C ) :   1.1609 B(  1-C ,  4-C ) :   0.9003 B(  2-C ,  3-O ) :   1.7927
B(  2-C , 15-N ) :   1.1965 B(  4-C ,  5-H ) :   1.0137 B(  4-C ,  6-H ) :   0.9584
B(  4-C ,  7-C ) :   0.8259 B(  7-C ,  8-H ) :   0.9445 B(  7-C ,  9-H ) :   0.9602
B(  7-C , 10-C ) :   0.9601 B( 10-C , 11-O ) :   1.2116 B( 10-C , 12-O ) :   2.0445
B( 11-O , 16-H ) :   0.8603 B( 14-C , 18-O ) :   1.9051 B( 14-C , 19-C ) :   0.9123
B( 15-N , 17-H ) :   0.9148 B( 15-N , 23-C ) :   0.9253 B( 19-C , 20-H ) :   0.9569
B( 19-C , 21-H ) :   0.9529 B( 19-C , 22-H ) :   0.9897 B( 23-C , 24-H ) :   0.9714
B( 23-C , 25-H ) :   0.9654 B( 23-C , 26-H ) :   0.9706

FINAL SINGLE POINT ENERGY      -723.098172725236

DIPOLE MOMENT
-------------
                                X             Y             Z
Electronic contribution:     -6.10398       1.93828       1.04537
Nuclear contribution   :      6.11546      -2.40479      -1.41148
                        -----------------------------------------
Total Dipole Moment    :      0.01148      -0.46651      -0.36612
                        -----------------------------------------
Magnitude (a.u.)       :      0.59313
Magnitude (Debye)      :      1.50761

VIBRATIONAL FREQUENCIES
-----------------------

Scaling factor for frequencies =  1.000000000  (already applied!)

   0:         0.00 cm**-1
   1:         0.00 cm**-1
   2:         0.00 cm**-1
   3:         0.00 cm**-1
   4:         0.00 cm**-1
   5:         0.00 cm**-1
   6:        30.93 cm**-1
   7:        37.91 cm**-1
   8:        55.94 cm**-1
   9:        77.73 cm**-1
  10:        85.27 cm**-1
  11:       122.80 cm**-1
  12:       126.93 cm**-1
  13:       133.10 cm**-1
  14:       145.70 cm**-1
  15:       151.74 cm**-1
  16:       181.88 cm**-1
  17:       227.69 cm**-1
  18:       262.35 cm**-1
  19:       303.61 cm**-1
  20:       312.92 cm**-1
  21:       361.14 cm**-1
  22:       378.95 cm**-1
  23:       403.42 cm**-1
  24:       484.49 cm**-1
  25:       527.29 cm**-1
  26:       531.77 cm**-1
  27:       592.01 cm**-1
  28:       618.64 cm**-1
  29:       656.78 cm**-1
  30:       663.58 cm**-1
  31:       714.63 cm**-1
  32:       746.94 cm**-1
  33:       757.12 cm**-1
  34:       806.29 cm**-1
  35:       866.82 cm**-1
  36:       919.18 cm**-1
  37:       944.41 cm**-1
  38:      1018.11 cm**-1
  39:      1039.35 cm**-1
  40:      1060.38 cm**-1
  41:      1064.44 cm**-1
  42:      1080.97 cm**-1
  43:      1164.05 cm**-1
  44:      1168.26 cm**-1
  45:      1183.83 cm**-1
  46:      1186.44 cm**-1
  47:      1229.24 cm**-1
  48:      1262.84 cm**-1
  49:      1281.48 cm**-1
  50:      1310.29 cm**-1
  51:      1343.79 cm**-1
  52:      1353.92 cm**-1
  53:      1411.18 cm**-1
  54:      1423.99 cm**-1
  55:      1433.12 cm**-1
  56:      1455.83 cm**-1
  57:      1464.74 cm**-1
  58:      1477.63 cm**-1
  59:      1482.89 cm**-1
  60:      1493.86 cm**-1
  61:      1495.48 cm**-1
  62:      1519.82 cm**-1
  63:      1553.39 cm**-1
  64:      1598.55 cm**-1
  65:      1702.84 cm**-1
  66:      1782.86 cm**-1
  67:      1861.29 cm**-1
  68:      3077.44 cm**-1
  69:      3080.65 cm**-1
  70:      3089.15 cm**-1
  71:      3104.92 cm**-1
  72:      3143.35 cm**-1
  73:      3144.49 cm**-1
  74:      3161.16 cm**-1
  75:      3170.05 cm**-1
  76:      3182.77 cm**-1
  77:      3183.11 cm**-1
  78:      3532.50 cm**-1
  79:      3697.33 cm**-1
  80:      3798.56 cm**-1

IR SPECTRUM
-----------

 Mode   freq       eps      Int      T**2         TX        TY        TZ
       cm**-1   L/(mol*cm) km/mol    a.u.
----------------------------------------------------------------------------
  6:     30.93   0.000270    1.36  0.002722  ( 0.018623 -0.041570 -0.025433)
  7:     37.91   0.000120    0.61  0.000988  (-0.005971  0.029888 -0.007717)
  8:     55.94   0.000080    0.40  0.000445  (-0.012595  0.016917 -0.000685)
  9:     77.73   0.001271    6.42  0.005103  (-0.009116  0.002027 -0.070821)
 10:     85.27   0.003570   18.04  0.013067  (-0.037372 -0.011842 -0.107377)
 11:    122.80   0.001094    5.53  0.002780  (-0.022072  0.044456 -0.017799)
 12:    126.93   0.000899    4.54  0.002211  ( 0.020268 -0.020453  0.037167)
 13:    133.10   0.000145    0.73  0.000339  ( 0.006504 -0.004731  0.016565)
 14:    145.70   0.001005    5.08  0.002154  (-0.015469 -0.036042 -0.024806)
 15:    151.74   0.001025    5.18  0.002109  ( 0.023184  0.000917  0.039629)
 16:    181.88   0.000442    2.24  0.000759  (-0.016278 -0.003109  0.022008)
 17:    227.69   0.000413    2.09  0.000566  ( 0.005711  0.020788 -0.010061)
 18:    262.35   0.002394   12.10  0.002848  ( 0.023501  0.047730  0.004160)
 19:    303.61   0.006635   33.53  0.006820  (-0.028903  0.017412 -0.075374)
 20:    312.92   0.001841    9.30  0.001836  (-0.016883 -0.009836 -0.038135)
 21:    361.14   0.002292   11.58  0.001981  (-0.002820 -0.035730 -0.026386)
 22:    378.95   0.000891    4.50  0.000733  ( 0.006252  0.022655  0.013456)
 23:    403.42   0.001168    5.90  0.000903  (-0.001538  0.029810 -0.003492)
 24:    484.49   0.003146   15.90  0.002026  (-0.030032  0.010844 -0.031731)
 25:    527.29   0.009421   47.61  0.005576  (-0.037339 -0.061514 -0.019935)
 26:    531.77   0.002403   12.14  0.001410  (-0.032839  0.004916  0.017540)
 27:    592.01   0.006536   33.03  0.003446  ( 0.046605 -0.035571  0.002864)
 28:    618.64   0.001746    8.82  0.000881  (-0.014808 -0.001970 -0.025642)
 29:    656.78   0.012208   61.69  0.005801  (-0.019009  0.068616  0.027038)
 30:    663.58   0.005516   27.87  0.002594  (-0.036202 -0.034589 -0.009315)
 31:    714.63   0.002165   10.94  0.000945  ( 0.002644  0.029812  0.007049)
 32:    746.94   0.003208   16.21  0.001340  ( 0.019246 -0.004178  0.030864)
 33:    757.12   0.008780   44.37  0.003619  (-0.021097  0.006522 -0.055959)
 34:    806.29   0.003703   18.71  0.001433  ( 0.010440  0.034989  0.009995)
 35:    866.82   0.000279    1.41  0.000101  ( 0.005979 -0.007676 -0.002419)
 36:    919.18   0.000798    4.03  0.000271  (-0.015846  0.004450 -0.000130)
 37:    944.41   0.002997   15.14  0.000990  ( 0.029721  0.010113 -0.002138)
 38:   1018.11   0.001684    8.51  0.000516  (-0.002469  0.021382 -0.007264)
 39:   1039.35   0.000874    4.42  0.000262  (-0.002883 -0.014568 -0.006475)
 40:   1060.38   0.001447    7.31  0.000426  ( 0.004076  0.005870  0.019362)
 41:   1064.44   0.001734    8.76  0.000508  ( 0.018669 -0.009078  0.008796)
 42:   1080.97   0.000088    0.44  0.000025  (-0.004915 -0.000555 -0.000893)
 43:   1164.05   0.000157    0.79  0.000042  ( 0.001239 -0.005576  0.003075)
 44:   1168.26   0.002514   12.71  0.000672  (-0.022535  0.000752 -0.012776)
 45:   1183.83   0.047588  240.49  0.012544  ( 0.088564 -0.014450  0.067022)
 46:   1186.44   0.003008   15.20  0.000791  (-0.013393  0.024733 -0.000138)
 47:   1229.24   0.008500   42.95  0.002158  (-0.013935  0.043697  0.007361)
 48:   1262.84   0.000981    4.96  0.000242  ( 0.009925  0.006741 -0.009921)
 49:   1281.48   0.006507   32.89  0.001585  ( 0.032092 -0.016582  0.016728)
 50:   1310.29   0.008136   41.12  0.001938  ( 0.013033 -0.042029 -0.001208)
 51:   1343.79   0.018067   91.30  0.004196  ( 0.029752 -0.056223  0.012226)
 52:   1353.92   0.040925  206.82  0.009433  ( 0.004509  0.096754  0.007157)
 53:   1411.18   0.008921   45.08  0.001973  (-0.006686 -0.043705  0.004235)
 54:   1423.99   0.020604  104.12  0.004515  ( 0.060689  0.014906  0.024699)
 55:   1433.12   0.009588   48.46  0.002088  ( 0.032894 -0.025794  0.018454)
 56:   1455.83   0.002902   14.67  0.000622  (-0.008738 -0.022858  0.004817)
 57:   1464.74   0.003216   16.25  0.000685  ( 0.024327  0.006031 -0.007545)
 58:   1477.63   0.001575    7.96  0.000333  (-0.006414  0.002968 -0.016811)
 59:   1482.89   0.004339   21.93  0.000913  ( 0.000019  0.021094  0.021638)
 60:   1493.86   0.011250   56.86  0.002350  ( 0.027747 -0.033837 -0.020865)
 61:   1495.48   0.004960   25.07  0.001035  (-0.026790  0.015834  0.008161)
 62:   1519.82   0.009844   49.75  0.002021  ( 0.007253 -0.044363 -0.000723)
 63:   1553.39   0.145969  737.67  0.029324  (-0.004653 -0.171155  0.002896)
 64:   1598.55   0.002225   11.24  0.000434  (-0.017843 -0.009156  0.005663)
 65:   1702.84   0.066797  337.56  0.012241  (-0.108026  0.006490  0.023014)
 66:   1782.86   0.043881  221.76  0.007681  (-0.068232  0.054437  0.007864)
 67:   1861.29   0.062503  315.87  0.010479  (-0.018752 -0.033136  0.095024)
 68:   3077.44   0.007829   39.56  0.000794  ( 0.010374 -0.026189 -0.000590)
 69:   3080.65   0.001397    7.06  0.000141  (-0.008082 -0.006632 -0.005672)
 70:   3089.15   0.000431    2.18  0.000043  ( 0.005878  0.002834 -0.000957)
 71:   3104.92   0.002007   10.14  0.000202  ( 0.000152 -0.012205  0.007262)
 72:   3143.35   0.002138   10.80  0.000212  (-0.004545 -0.000991 -0.013806)
 73:   3144.49   0.000641    3.24  0.000064  ( 0.007148  0.003391  0.001008)
 74:   3161.16   0.000107    0.54  0.000011  (-0.002957  0.001343 -0.000201)
 75:   3170.05   0.000122    0.62  0.000012  (-0.000781  0.000007  0.003378)
 76:   3182.77   0.001567    7.92  0.000154  ( 0.008253  0.009053 -0.001882)
 77:   3183.11   0.001257    6.35  0.000123  (-0.010390  0.003677  0.001326)
 78:   3532.50   0.020004  101.09  0.001767  (-0.034993  0.021998  0.007666)
 79:   3697.33   0.008854   44.75  0.000747  ( 0.024278  0.010869 -0.006307)
 80:   3798.56   0.018902   95.52  0.001553  (-0.039174 -0.003681  0.002165)

--------------------------
THERMOCHEMISTRY AT 298.15K
--------------------------

Temperature         ... 298.15 K
Pressure            ... 1.00 atm
Total Mass          ... 201.20 AMU

Throughout the following assumptions are being made:
  (1) The electronic state is orbitally nondegenerate
      but the spin degeneracy is treated
  (2) There are no thermally accessible electronically excited states
  (3) Hindered rotations indicated by low frequency modes are not
      treated as such but are treated as vibrations and this may
      cause some error
  (4) All equations used are the standard statistical mechanics
      equations for an ideal gas
  (5) All vibrations are strictly harmonic

freq.      30.93  E(vib)   ...       0.55
freq.      37.91  E(vib)   ...       0.54
freq.      55.94  E(vib)   ...       0.52
freq.      77.73  E(vib)   ...       0.49
freq.      85.27  E(vib)   ...       0.48
freq.     122.80  E(vib)   ...       0.43
freq.     126.93  E(vib)   ...       0.43
freq.     133.10  E(vib)   ...       0.42
freq.     145.70  E(vib)   ...       0.41
freq.     151.74  E(vib)   ...       0.40
freq.     181.88  E(vib)   ...       0.37
freq.     227.69  E(vib)   ...       0.33
freq.     262.35  E(vib)   ...       0.29
freq.     303.61  E(vib)   ...       0.26
freq.     312.92  E(vib)   ...       0.25
freq.     361.14  E(vib)   ...       0.22
freq.     378.95  E(vib)   ...       0.21
freq.     403.42  E(vib)   ...       0.19
freq.     484.49  E(vib)   ...       0.15
freq.     527.29  E(vib)   ...       0.13
freq.     531.77  E(vib)   ...       0.13
freq.     592.01  E(vib)   ...       0.10
freq.     618.64  E(vib)   ...       0.09
freq.     656.78  E(vib)   ...       0.08
freq.     663.58  E(vib)   ...       0.08
freq.     714.63  E(vib)   ...       0.07
freq.     746.94  E(vib)   ...       0.06
freq.     757.12  E(vib)   ...       0.06
freq.     806.29  E(vib)   ...       0.05
freq.     866.82  E(vib)   ...       0.04
freq.     919.18  E(vib)   ...       0.03
freq.     944.41  E(vib)   ...       0.03
freq.    1018.11  E(vib)   ...       0.02
freq.    1039.35  E(vib)   ...       0.02
freq.    1060.38  E(vib)   ...       0.02
freq.    1064.44  E(vib)   ...       0.02
freq.    1080.97  E(vib)   ...       0.02
freq.    1164.05  E(vib)   ...       0.01
freq.    1168.26  E(vib)   ...       0.01
freq.    1183.83  E(vib)   ...       0.01
freq.    1186.44  E(vib)   ...       0.01
freq.    1229.24  E(vib)   ...       0.01
freq.    1262.84  E(vib)   ...       0.01
freq.    1281.48  E(vib)   ...       0.01
freq.    1310.29  E(vib)   ...       0.01
freq.    1343.79  E(vib)   ...       0.01
freq.    1353.92  E(vib)   ...       0.01
freq.    1411.18  E(vib)   ...       0.00
freq.    1423.99  E(vib)   ...       0.00
freq.    1433.12  E(vib)   ...       0.00
freq.    1455.83  E(vib)   ...       0.00
freq.    1464.74  E(vib)   ...       0.00
freq.    1477.63  E(vib)   ...       0.00
freq.    1482.89  E(vib)   ...       0.00
freq.    1493.86  E(vib)   ...       0.00
freq.    1495.48  E(vib)   ...       0.00
freq.    1519.82  E(vib)   ...       0.00
freq.    1553.39  E(vib)   ...       0.00
freq.    1598.55  E(vib)   ...       0.00
freq.    1702.84  E(vib)   ...       0.00
freq.    1782.86  E(vib)   ...       0.00
freq.    1861.29  E(vib)   ...       0.00
freq.    3077.44  E(vib)   ...       0.00
freq.    3080.65  E(vib)   ...       0.00
freq.    3089.15  E(vib)   ...       0.00
freq.    3104.92  E(vib)   ...       0.00
freq.    3143.35  E(vib)   ...       0.00
freq.    3144.49  E(vib)   ...       0.00
freq.    3161.16  E(vib)   ...       0.00
freq.    3170.05  E(vib)   ...       0.00
freq.    3182.77  E(vib)   ...       0.00
freq.    3183.11  E(vib)   ...       0.00
freq.    3532.50  E(vib)   ...       0.00
freq.    3697.33  E(vib)   ...       0.00
freq.    3798.56  E(vib)   ...       0.00

------------
INNER ENERGY
------------

The inner energy is: U= E(el) + E(ZPE) + E(vib) + E(rot) + E(trans)
    E(el)   - is the total energy from the electronic structure calculation
              = E(kin-el) + E(nuc-el) + E(el-el) + E(nuc-nuc)
    E(ZPE)  - the the zero temperature vibrational energy from the frequency calculation
    E(vib)  - the the finite temperature correction to E(ZPE) due to population
              of excited vibrational states
    E(rot)  - is the rotational thermal energy
    E(trans)- is the translational thermal energy

Summary of contributions to the inner energy U:
Electronic energy                ...   -723.09817273 Eh
Zero point energy                ...      0.21984382 Eh     137.95 kcal/mol
Thermal vibrational correction   ...      0.01293024 Eh       8.11 kcal/mol
Thermal rotational correction    ...      0.00141627 Eh       0.89 kcal/mol
Thermal translational correction ...      0.00141627 Eh       0.89 kcal/mol
-----------------------------------------------------------------------
Total thermal energy                   -722.86256613 Eh

Summary of corrections to the electronic energy:
(perhaps to be used in another calculation)
Total thermal correction                  0.01576278 Eh       9.89 kcal/mol
Non-thermal (ZPE) correction              0.21984382 Eh     137.95 kcal/mol
-----------------------------------------------------------------------
Total correction                          0.23560660 Eh     147.85 kcal/mol

--------
ENTHALPY
--------

The enthalpy is H = U + kB*T
                kB is Boltzmann's constant
Total free energy                 ...   -722.86256613 Eh
Thermal Enthalpy correction       ...      0.00094421 Eh       0.59 kcal/mol
-----------------------------------------------------------------------
Total Enthalpy                    ...   -722.86162192 Eh

Note: Only C1 symmetry has been detected, increase convergence thresholds
      if your molecule has a higher symmetry. Symmetry factor of 1.0 is
      used for the rotational entropy correction.

Note: Rotational entropy computed according to Herzberg
Infrared and Raman Spectra, Chapter V,1, Van Nostrand Reinhold, 1945
Point Group:  C1, Symmetry Number:   1
Rotational constants in cm-1:     0.021277     0.016713     0.009989

Vibrational entropy computed according to the QRRHO of S. Grimme
Chem.Eur.J. 2012 18 9955

-------
ENTROPY
-------

The entropy contributions are T*S = T*(S(el)+S(vib)+S(rot)+S(trans))
     S(el)   - electronic entropy
     S(vib)  - vibrational entropy
     S(rot)  - rotational entropy
     S(trans)- translational entropy
The entropies will be listed as multiplied by the temperature to get

                             ****ORCA TERMINATED NORMALLY****
TOTAL RUN TIME: 0 days 0 hours 34 minutes 29 seconds 741 msec
