                         Program Version 5.0.4 -  RELEASE  -
|  1> ! B3LYP EPR-II OPT
|  2> %pal nprocs 16 end
|  3> *XYZFile 0 2 model.xyz
|  4>
|  5>                          ****END OF INPUT****
 Total Charge           Charge          ....    0
 Multiplicity           Mult            ....    2
 Number of Electrons    NEL             ....  107
FINAL SINGLE POINT ENERGY      -722.865428793657
FINAL SINGLE POINT ENERGY      -722.867408094136
FINAL SINGLE POINT ENERGY      -722.867516452823
FINAL SINGLE POINT ENERGY      -722.867536678313
FINAL SINGLE POINT ENERGY      -722.867569276907
FINAL SINGLE POINT ENERGY      -722.867587287926
FINAL SINGLE POINT ENERGY      -722.867609831446
FINAL SINGLE POINT ENERGY      -722.867673493580
FINAL SINGLE POINT ENERGY      -722.867729975841
FINAL SINGLE POINT ENERGY      -722.867783420421
FINAL SINGLE POINT ENERGY      -722.867815300741
FINAL SINGLE POINT ENERGY      -722.867827922914
FINAL SINGLE POINT ENERGY      -722.867839429328
FINAL SINGLE POINT ENERGY      -722.867858604891
FINAL SINGLE POINT ENERGY      -722.867871436345
FINAL SINGLE POINT ENERGY      -722.867890424910
FINAL SINGLE POINT ENERGY      -722.867906701681
FINAL SINGLE POINT ENERGY      -722.867915125148
FINAL SINGLE POINT ENERGY      -722.867918047289
                    ***********************HURRAY********************

CARTESIAN COORDINATES (ANGSTROEM)
---------------------------------
  N      1.511828    1.099056    0.007227
  C      0.795964   -0.066582    0.217079
  C      1.623390   -1.254189   -0.080225
  O      2.806265   -1.118683   -0.451568
  C     -0.631733   -0.083047    0.686405
  H     -0.853583   -1.036449    1.173234
  H     -0.777382    0.692609    1.441564
  C     -1.662931    0.139986   -0.445645
  H     -1.670421    1.185390   -0.761255
  H     -1.413477   -0.463585   -1.328310
  C     -3.062984   -0.272776   -0.024288
  O     -4.016332    0.275427   -0.820268
  O     -3.335022   -1.026417    0.890804
  H      2.467228    0.887421   -0.279648
  C      1.118253    2.422170    0.110753
  N      1.034026   -2.489373    0.039286
  H     -4.869739   -0.060899   -0.500930
  H      0.124337   -2.552855    0.466892
  O     -0.026464    2.767138    0.399406
  C      2.219664    3.437732   -0.166347
  H      1.911945    4.063356   -1.009260
  H      2.315836    4.088327    0.707405
  H      3.189454    2.985480   -0.387597
  C      1.803352   -3.716056   -0.130703
  H      2.341736   -3.994324    0.784167
  H      1.128115   -4.528976   -0.408710
  H      2.536351   -3.566499   -0.924263

 Multiplicity           Mult            ....    2
 Number of Electrons    NEL             ....  107
 Basis Dimension        Dim             ....  329

ORBITAL ENERGIES
----------------
                 SPIN UP ORBITALS
  NO   OCC          E(Eh)            E(eV)
   0   1.0000     -19.197270      -522.3843
   1   1.0000     -19.145302      -520.9702
   2   1.0000     -19.123860      -520.3867
   3   1.0000     -19.112532      -520.0784
   4   1.0000     -14.386564      -391.4783
   5   1.0000     -14.365337      -390.9007
   6   1.0000     -10.336074      -281.2589
   7   1.0000     -10.307908      -280.4924
   8   1.0000     -10.297921      -280.2207
   9   1.0000     -10.254253      -279.0324
  10   1.0000     -10.219961      -278.0993
  11   1.0000     -10.211382      -277.8658
  12   1.0000     -10.209549      -277.8160
  13   1.0000     -10.198184      -277.5067
  14   1.0000      -1.112828       -30.2816
  15   1.0000      -1.049170       -28.5494
  16   1.0000      -1.034325       -28.1454
  17   1.0000      -1.022750       -27.8304
  18   1.0000      -0.949306       -25.8319
  19   1.0000      -0.924141       -25.1471
  20   1.0000      -0.814694       -22.1690
  21   1.0000      -0.765543       -20.8315
  22   1.0000      -0.733535       -19.9605
  23   1.0000      -0.700292       -19.0559
  24   1.0000      -0.668543       -18.1920
  25   1.0000      -0.606503       -16.5038
  26   1.0000      -0.598491       -16.2858
  27   1.0000      -0.567405       -15.4399
  28   1.0000      -0.554753       -15.0956
  29   1.0000      -0.506024       -13.7696
  30   1.0000      -0.492369       -13.3980
  31   1.0000      -0.487331       -13.2610
  32   1.0000      -0.482891       -13.1401
  33   1.0000      -0.467773       -12.7288
  34   1.0000      -0.460255       -12.5242
  35   1.0000      -0.453378       -12.3370
  36   1.0000      -0.448261       -12.1978
  37   1.0000      -0.433657       -11.8004
  38   1.0000      -0.421099       -11.4587
  39   1.0000      -0.415547       -11.3076
  40   1.0000      -0.409456       -11.1419
  41   1.0000      -0.406545       -11.0627
  42   1.0000      -0.398357       -10.8398
  43   1.0000      -0.385568       -10.4918
  44   1.0000      -0.380443       -10.3524
  45   1.0000      -0.379233       -10.3195
  46   1.0000      -0.363043        -9.8789
  47   1.0000      -0.330341        -8.9890
  48   1.0000      -0.322847        -8.7851
  49   1.0000      -0.289350        -7.8736
  50   1.0000      -0.272632        -7.4187
  51   1.0000      -0.267301        -7.2736
  52   1.0000      -0.265579        -7.2268
  53   1.0000      -0.184339        -5.0161
  54   0.0000      -0.004853        -0.1321
  55   0.0000       0.005338         0.1453
  56   0.0000       0.009102         0.2477
  57   0.0000       0.019246         0.5237
  58   0.0000       0.024622         0.6700

                 SPIN DOWN ORBITALS
  NO   OCC          E(Eh)            E(eV)
   0   1.0000     -19.197199      -522.3824
   1   1.0000     -19.145299      -520.9701
   2   1.0000     -19.121204      -520.3144
   3   1.0000     -19.110006      -520.0097
   4   1.0000     -14.385014      -391.4361
   5   1.0000     -14.363804      -390.8590
   6   1.0000     -10.335992      -281.2566
   7   1.0000     -10.307410      -280.4789
   8   1.0000     -10.298322      -280.2316
   9   1.0000     -10.244322      -278.7622
  10   1.0000     -10.220041      -278.1015
  11   1.0000     -10.210449      -277.8404
  12   1.0000     -10.210140      -277.8320
  13   1.0000     -10.198280      -277.5093
  14   1.0000      -1.112686       -30.2777
  15   1.0000      -1.044107       -28.4116
  16   1.0000      -1.029956       -28.0265
  17   1.0000      -1.022684       -27.8286
  18   1.0000      -0.942045       -25.6344
  19   1.0000      -0.920462       -25.0471
  20   1.0000      -0.809096       -22.0166
  21   1.0000      -0.760263       -20.6878
  22   1.0000      -0.730591       -19.8804
  23   1.0000      -0.698221       -18.9996
  24   1.0000      -0.663096       -18.0438
  25   1.0000      -0.604325       -16.4445
  26   1.0000      -0.596514       -16.2320
  27   1.0000      -0.564245       -15.3539
  28   1.0000      -0.550881       -14.9902
  29   1.0000      -0.504652       -13.7323
  30   1.0000      -0.491224       -13.3669
  31   1.0000      -0.486016       -13.2252
  32   1.0000      -0.481905       -13.1133
  33   1.0000      -0.458795       -12.4845
  34   1.0000      -0.457238       -12.4421
  35   1.0000      -0.449380       -12.2282
  36   1.0000      -0.443769       -12.0756
  37   1.0000      -0.431968       -11.7544
  38   1.0000      -0.415453       -11.3051
  39   1.0000      -0.411338       -11.1931
  40   1.0000      -0.407269       -11.0823
  41   1.0000      -0.403092       -10.9687
  42   1.0000      -0.397421       -10.8144
  43   1.0000      -0.380307       -10.3487
  44   1.0000      -0.376631       -10.2486
  45   1.0000      -0.373929       -10.1751
  46   1.0000      -0.360433        -9.8079
  47   1.0000      -0.330300        -8.9879
  48   1.0000      -0.303177        -8.2499
  49   1.0000      -0.288900        -7.8614
  50   1.0000      -0.266707        -7.2575
  51   1.0000      -0.264374        -7.1940
  52   1.0000      -0.254836        -6.9344
  53   0.0000      -0.091741        -2.4964
  54   0.0000      -0.004490        -0.1222
  55   0.0000       0.009142         0.2488
  56   0.0000       0.018508         0.5036
  57   0.0000       0.019666         0.5351

MULLIKEN ATOMIC CHARGES AND SPIN POPULATIONS
--------------------------------------------
   0 N :   -0.028896    0.063235
   1 C :    0.146088    0.654670
   2 C :    0.017236   -0.012813
   3 O :   -0.377358    0.093839
   4 C :   -0.319295   -0.041679
   5 H :    0.131515    0.004478
   6 H :    0.194045    0.012341
   7 C :   -0.272703    0.026113
   8 H :    0.216198   -0.000435
   9 H :    0.178212   -0.001145
  10 C :    0.107804    0.005427
  11 O :   -0.266983    0.000576
  12 O :   -0.259508   -0.000253
  13 H :    0.252068   -0.003900
  14 C :    0.112023    0.032952
  15 N :   -0.114375    0.062163
  16 H :    0.287919    0.001061
  17 H :    0.225271   -0.001863
  18 O :   -0.288903    0.096456
  19 C :   -0.541658   -0.004033
  20 H :    0.188531    0.004823
  21 H :    0.189368    0.004396
  22 H :    0.152284   -0.000116
  23 C :   -0.443209   -0.005734
  24 H :    0.170664    0.007459
  25 H :    0.148293    0.001234
  26 H :    0.195370    0.000749
Sum of atomic charges         :   -0.0000000

LOEWDIN ATOMIC CHARGES AND SPIN POPULATIONS
-------------------------------------------
   0 N :    0.128955    0.076688
   1 C :   -0.044347    0.530387
   2 C :   -0.110744    0.030857
   3 O :   -0.225111    0.090564
   4 C :   -0.040820    0.006926
   5 H :    0.049481    0.003405
   6 H :    0.071279    0.009833
   7 C :   -0.031440    0.031257
   8 H :    0.071283    0.000015
   9 H :    0.068998   -0.000018
  10 C :   -0.084488    0.003638
  11 O :    0.017777    0.001524
  12 O :   -0.149640    0.000105
  13 H :    0.103705    0.002169
  14 C :   -0.097388    0.047774
  15 N :    0.034978    0.058198
  16 H :    0.101426    0.000637
  17 H :    0.073541    0.000816
  18 O :   -0.170526    0.091468
  19 C :   -0.037845   -0.000064
  20 H :    0.056198    0.003566
  21 H :    0.056705    0.003384
  22 H :    0.035527   -0.000191
  23 C :    0.008693    0.000281
  24 H :    0.032617    0.005091
  25 H :    0.031817    0.000948
  26 H :    0.049367    0.000742

  Mayer bond orders larger than 0.100000
B(  0-N ,  1-C ) :   1.2438 B(  0-N , 13-H ) :   0.8693 B(  0-N , 14-C ) :   1.1599
B(  1-C ,  2-C ) :   1.0683 B(  1-C ,  4-C ) :   0.9792 B(  2-C ,  3-O ) :   1.7358
B(  2-C , 15-N ) :   1.1806 B(  4-C ,  5-H ) :   0.9710 B(  4-C ,  6-H ) :   0.9569
B(  4-C ,  7-C ) :   0.9374 B(  7-C ,  8-H ) :   0.9506 B(  7-C ,  9-H ) :   0.9612
B(  7-C , 10-C ) :   0.8937 B( 10-C , 11-O ) :   1.1435 B( 10-C , 12-O ) :   1.9582
B( 11-O , 16-H ) :   0.8945 B( 14-C , 18-O ) :   1.8942 B( 14-C , 19-C ) :   0.8985
B( 15-N , 17-H ) :   0.9257 B( 15-N , 23-C ) :   0.9730 B( 19-C , 20-H ) :   0.9544
B( 19-C , 21-H ) :   0.9564 B( 19-C , 22-H ) :   0.9740 B( 23-C , 24-H ) :   0.9541
B( 23-C , 25-H ) :   0.9668 B( 23-C , 26-H ) :   0.9461

FINAL SINGLE POINT ENERGY      -722.867925056218

DIPOLE MOMENT
-------------
                                X             Y             Z
Electronic contribution:     -6.26452       1.66054       0.78459
Nuclear contribution   :      6.25596      -2.14450      -1.07956
                        -----------------------------------------
Total Dipole Moment    :     -0.00856      -0.48396      -0.29497
                        -----------------------------------------
Magnitude (a.u.)       :      0.56683
Magnitude (Debye)      :      1.44077

Rotational constants in cm-1:     0.020723     0.016376     0.009651
Rotational constants in MHz :   621.273929   490.944382   289.341388

                             ****ORCA TERMINATED NORMALLY****
TOTAL RUN TIME: 0 days 0 hours 10 minutes 14 seconds 769 msec
