                         Program Version 5.0.4 -  RELEASE  -
|  1> ! B3LYP EPR-II AUTOAUX
|  2> %pal nprocs 16 end
|  3> *XYZFile 0 2 opt.xyz
|  4> %EPRNMR
|  5>         GTENSOR   TRUE
|  6>         NUCLEI    = 1,4,6,7,9,10,14,16,18,19 {SHIFT, AISO, ADIP, AORB}
|  7>         ORI       GIAO
|  8> END
|  9>
| 10>                          ****END OF INPUT****

CARTESIAN COORDINATES (ANGSTROEM)
---------------------------------
  N      1.485187    1.112645   -0.009513
  C      0.781677   -0.058903    0.207470
  C      1.626076   -1.240226   -0.067765
  O      2.810797   -1.093827   -0.427647
  C     -0.650314   -0.083706    0.664539
  H     -0.867696   -1.032662    1.162218
  H     -0.809460    0.699549    1.409022
  C     -1.671503    0.119113   -0.479402
  H     -1.659327    1.154983   -0.825865
  H     -1.429220   -0.513968   -1.342895
  C     -3.081693   -0.248591   -0.051120
  O     -4.015393    0.245546   -0.904947
  O     -3.378183   -0.924249    0.915501
  H      2.446871    0.909795   -0.281211
  C      1.074959    2.432391    0.070156
  N      1.046540   -2.480367    0.058426
  H     -4.877377   -0.053770   -0.572021
  H      0.136126   -2.543905    0.484971
  O     -0.078248    2.768295    0.334084
  C      2.173636    3.456515   -0.186711
  H      1.831469    4.146719   -0.962303
  H      2.323898    4.037820    0.728144
  H      3.126053    3.013692   -0.488262
  C      1.827801   -3.704100   -0.075096
  H      2.259330   -4.022757    0.882394
  H      1.191593   -4.503823   -0.463376
  H      2.644080   -3.518820   -0.773584

 Total Charge           Charge          ....    0
 Multiplicity           Mult            ....    2
 Number of Electrons    NEL             ....  107
 Basis Dimension        Dim             ....  329

ORBITAL ENERGIES
----------------
                 SPIN UP ORBITALS
  NO   OCC          E(Eh)            E(eV)
   0   1.0000     -19.196771      -522.3707
   1   1.0000     -19.144794      -520.9563
   2   1.0000     -19.124225      -520.3966
   3   1.0000     -19.112927      -520.0892
   4   1.0000     -14.386847      -391.4860
   5   1.0000     -14.365572      -390.9071
   6   1.0000     -10.335676      -281.2480
   7   1.0000     -10.308125      -280.4983
   8   1.0000     -10.298428      -280.2345
   9   1.0000     -10.254458      -279.0380
  10   1.0000     -10.219923      -278.0982
  11   1.0000     -10.211343      -277.8648
  12   1.0000     -10.209856      -277.8243
  13   1.0000     -10.198509      -277.5155
  14   1.0000      -1.112190       -30.2642
  15   1.0000      -1.049480       -28.5578
  16   1.0000      -1.034632       -28.1538
  17   1.0000      -1.022237       -27.8165
  18   1.0000      -0.949610       -25.8402
  19   1.0000      -0.924449       -25.1555
  20   1.0000      -0.814779       -22.1713
  21   1.0000      -0.765638       -20.8341
  22   1.0000      -0.733674       -19.9643
  23   1.0000      -0.700352       -19.0575
  24   1.0000      -0.668612       -18.1938
  25   1.0000      -0.606049       -16.4914
  26   1.0000      -0.598229       -16.2787
  27   1.0000      -0.567537       -15.4435
  28   1.0000      -0.554733       -15.0950
  29   1.0000      -0.505862       -13.7652
  30   1.0000      -0.491767       -13.3817
  31   1.0000      -0.487770       -13.2729
  32   1.0000      -0.482937       -13.1414
  33   1.0000      -0.467783       -12.7290
  34   1.0000      -0.460472       -12.5301
  35   1.0000      -0.453595       -12.3430
  36   1.0000      -0.448631       -12.2079
  37   1.0000      -0.432933       -11.7807
  38   1.0000      -0.421468       -11.4687
  39   1.0000      -0.415815       -11.3149
  40   1.0000      -0.409399       -11.1403
  41   1.0000      -0.406807       -11.0698
  42   1.0000      -0.397712       -10.8223
  43   1.0000      -0.385875       -10.5002
  44   1.0000      -0.380954       -10.3663
  45   1.0000      -0.379624       -10.3301
  46   1.0000      -0.362812        -9.8726
  47   1.0000      -0.329928        -8.9778
  48   1.0000      -0.323215        -8.7951
  49   1.0000      -0.288757        -7.8575
  50   1.0000      -0.273008        -7.4289
  51   1.0000      -0.267559        -7.2807
  52   1.0000      -0.265728        -7.2308
  53   1.0000      -0.184483        -5.0200
  54   0.0000      -0.004023        -0.1095
  55   0.0000       0.005244         0.1427
  56   0.0000       0.008359         0.2275
  57   0.0000       0.019222         0.5231
  58   0.0000       0.024381         0.6634

                 SPIN DOWN ORBITALS
  NO   OCC          E(Eh)            E(eV)
   0   1.0000     -19.196701      -522.3688
   1   1.0000     -19.144790      -520.9562
   2   1.0000     -19.121589      -520.3249
   3   1.0000     -19.110478      -520.0225
   4   1.0000     -14.385266      -391.4430
   5   1.0000     -14.364016      -390.8647
   6   1.0000     -10.335594      -281.2458
   7   1.0000     -10.307612      -280.4844
   8   1.0000     -10.298784      -280.2442
   9   1.0000     -10.244569      -278.7689
  10   1.0000     -10.220006      -278.1005
  11   1.0000     -10.210535      -277.8428
  12   1.0000     -10.210319      -277.8369
  13   1.0000     -10.198607      -277.5182
  14   1.0000      -1.112047       -30.2604
  15   1.0000      -1.044428       -28.4203
  16   1.0000      -1.030319       -28.0364
  17   1.0000      -1.022169       -27.8146
  18   1.0000      -0.942324       -25.6420
  19   1.0000      -0.920787       -25.0559
  20   1.0000      -0.809178       -22.0189
  21   1.0000      -0.760387       -20.6912
  22   1.0000      -0.730722       -19.8839
  23   1.0000      -0.698260       -19.0006
  24   1.0000      -0.663180       -18.0461
  25   1.0000      -0.603808       -16.4305
  26   1.0000      -0.596275       -16.2255
  27   1.0000      -0.564394       -15.3579
  28   1.0000      -0.550837       -14.9890
  29   1.0000      -0.504414       -13.7258
  30   1.0000      -0.490619       -13.3504
  31   1.0000      -0.486493       -13.2381
  32   1.0000      -0.481977       -13.1153
  33   1.0000      -0.459129       -12.4935
  34   1.0000      -0.457214       -12.4414
  35   1.0000      -0.449621       -12.2348
  36   1.0000      -0.444037       -12.0829
  37   1.0000      -0.431328       -11.7370
  38   1.0000      -0.415467       -11.3054
  39   1.0000      -0.411528       -11.1983
  40   1.0000      -0.407354       -11.0847
  41   1.0000      -0.403430       -10.9779
  42   1.0000      -0.396938       -10.8012
  43   1.0000      -0.380604       -10.3568
  44   1.0000      -0.376988       -10.2584
  45   1.0000      -0.374474       -10.1900
  46   1.0000      -0.360289        -9.8040
  47   1.0000      -0.329886        -8.9767
  48   1.0000      -0.303537        -8.2597
  49   1.0000      -0.288300        -7.8450
  50   1.0000      -0.267228        -7.2716
  51   1.0000      -0.264687        -7.2025
  52   1.0000      -0.254949        -6.9375
  53   0.0000      -0.091964        -2.5025
  54   0.0000      -0.003648        -0.0993
  55   0.0000       0.008591         0.2338
  56   0.0000       0.018298         0.4979
  57   0.0000       0.019527         0.5314

MULLIKEN ATOMIC CHARGES AND SPIN POPULATIONS
--------------------------------------------
   0 N :   -0.029837    0.063916
   1 C :    0.148972    0.654008
   2 C :    0.012865   -0.011357
   3 O :   -0.377429    0.092262
   4 C :   -0.320939   -0.041490
   5 H :    0.130934    0.004332
   6 H :    0.195533    0.012484
   7 C :   -0.271757    0.025611
   8 H :    0.216607   -0.000489
   9 H :    0.178503   -0.001025
  10 C :    0.108095    0.005435
  11 O :   -0.269087    0.000605
  12 O :   -0.257877   -0.000186
  13 H :    0.252771   -0.003912
  14 C :    0.111622    0.033247
  15 N :   -0.111958    0.062297
  16 H :    0.287851    0.001062
  17 H :    0.223457   -0.001876
  18 O :   -0.288478    0.096158
  19 C :   -0.542735   -0.004107
  20 H :    0.188865    0.004533
  21 H :    0.189689    0.004618
  22 H :    0.152931   -0.000089
  23 C :   -0.448173   -0.005729
  24 H :    0.169137    0.007528
  25 H :    0.152025    0.001811
  26 H :    0.198410    0.000355
Sum of atomic charges         :    0.0000000

LOEWDIN ATOMIC CHARGES AND SPIN POPULATIONS
-------------------------------------------
   0 N :    0.129089    0.077251
   1 C :   -0.044108    0.529814
   2 C :   -0.110483    0.031996
   3 O :   -0.226211    0.089144
   4 C :   -0.041220    0.007025
   5 H :    0.049141    0.003341
   6 H :    0.071689    0.009958
   7 C :   -0.032292    0.030965
   8 H :    0.072240    0.000022
   9 H :    0.068392   -0.000029
  10 C :   -0.084335    0.003615
  11 O :    0.016546    0.001521
  12 O :   -0.147844    0.000157
  13 H :    0.103783    0.002184
  14 C :   -0.097358    0.048036
  15 N :    0.034779    0.058454
  16 H :    0.101355    0.000639
  17 H :    0.073170    0.000785
  18 O :   -0.170165    0.091262
  19 C :   -0.037980   -0.000118
  20 H :    0.055871    0.003275
  21 H :    0.057038    0.003626
  22 H :    0.035675   -0.000165
  23 C :    0.008320    0.000302
  24 H :    0.031849    0.005136
  25 H :    0.031566    0.001419
  26 H :    0.051495    0.000388

  Mayer bond orders larger than 0.100000
B(  0-N ,  1-C ) :   1.2456 B(  0-N , 13-H ) :   0.8696 B(  0-N , 14-C ) :   1.1597
B(  1-C ,  2-C ) :   1.0675 B(  1-C ,  4-C ) :   0.9768 B(  2-C ,  3-O ) :   1.7447
B(  2-C , 15-N ) :   1.1752 B(  4-C ,  5-H ) :   0.9726 B(  4-C ,  6-H ) :   0.9568
B(  4-C ,  7-C ) :   0.9374 B(  7-C ,  8-H ) :   0.9495 B(  7-C ,  9-H ) :   0.9616
B(  7-C , 10-C ) :   0.8921 B( 10-C , 11-O ) :   1.1421 B( 10-C , 12-O ) :   1.9604
B( 11-O , 16-H ) :   0.8947 B( 14-C , 18-O ) :   1.8947 B( 14-C , 19-C ) :   0.8980
B( 15-N , 17-H ) :   0.9256 B( 15-N , 23-C ) :   0.9733 B( 19-C , 20-H ) :   0.9564
B( 19-C , 21-H ) :   0.9543 B( 19-C , 22-H ) :   0.9739 B( 23-C , 24-H ) :   0.9550
B( 23-C , 25-H ) :   0.9656 B( 23-C , 26-H ) :   0.9450

FINAL SINGLE POINT ENERGY      -722.867439255751

DIPOLE MOMENT
-------------
                                X             Y             Z
Electronic contribution:     -6.31304       1.73010       0.65542
Nuclear contribution   :      6.34348      -2.24113      -0.93608
                        -----------------------------------------
Total Dipole Moment    :      0.03045      -0.51104      -0.28066
                        -----------------------------------------
Magnitude (a.u.)       :      0.58382
Magnitude (Debye)      :      1.48397

Rotational constants in cm-1:     0.020771     0.016295     0.009657
Rotational constants in MHz :   622.705631   488.519217   289.510184

CHEMICAL SHIELDING SUMMARY (ppm)  --  Orbital contribution
----------------------------------------------------------

  Nucleus  Element    Isotropic     Anisotropy
  -------  -------  ------------   ------------
      0       N           86.201        123.133
      3       O           -7.588        552.618
      5       H           29.529          5.486
      6       H           28.447          5.755
      8       H           28.634          4.652
      9       H           29.966          4.822
     13       H           22.541          9.093
     15       N          157.220         76.592
     17       H           27.009          8.338
     18       O         -104.828       -502.393

                             ****ORCA TERMINATED NORMALLY****
TOTAL RUN TIME: 0 days 0 hours 4 minutes 20 seconds 876 msec
