                         Program Version 5.0.4 -  RELEASE  -
|  1> ! M062X def2-TZVP OPT FREQ
|  2> %pal nprocs 16 end
|  3> *XYZFile 0 2 opt.xyz
|  4>
|  5>                          ****END OF INPUT****
 Total Charge           Charge          ....    0
 Multiplicity           Mult            ....    2
 Number of Electrons    NEL             ....  107
FINAL SINGLE POINT ENERGY      -723.094564384827
FINAL SINGLE POINT ENERGY      -723.097677676212
FINAL SINGLE POINT ENERGY      -723.097778299947
FINAL SINGLE POINT ENERGY      -723.097833806897
FINAL SINGLE POINT ENERGY      -723.097800972177
FINAL SINGLE POINT ENERGY      -723.097859488053
FINAL SINGLE POINT ENERGY      -723.097795338923
FINAL SINGLE POINT ENERGY      -723.097940640142
FINAL SINGLE POINT ENERGY      -723.097937744506
FINAL SINGLE POINT ENERGY      -723.097956239523
FINAL SINGLE POINT ENERGY      -723.098026750618
FINAL SINGLE POINT ENERGY      -723.098053270012
FINAL SINGLE POINT ENERGY      -723.098073809719
FINAL SINGLE POINT ENERGY      -723.098093151638
FINAL SINGLE POINT ENERGY      -723.098118992736
FINAL SINGLE POINT ENERGY      -723.098146620841
FINAL SINGLE POINT ENERGY      -723.098166960770
FINAL SINGLE POINT ENERGY      -723.098167726916
FINAL SINGLE POINT ENERGY      -723.098168662069
                    ***********************HURRAY********************

CARTESIAN COORDINATES (ANGSTROEM)
---------------------------------
  N      1.514320    1.106636    0.076315
  C      0.801125   -0.046686    0.274940
  C      1.604796   -1.235282   -0.007441
  O      2.788626   -1.132575   -0.330016
  C     -0.622692   -0.057660    0.710960
  H     -0.832242   -0.973624    1.265020
  H     -0.807291    0.763148    1.401388
  C     -1.601854    0.058490   -0.458106
  H     -1.547941    1.052995   -0.901859
  H     -1.366045   -0.658004   -1.250680
  C     -3.018718   -0.204129   -0.028501
  O     -3.891328    0.035618   -1.021598
  O     -3.362221   -0.598680    1.051104
  H      2.485705    0.918220   -0.152328
  C      1.064095    2.404795    0.058603
  N      0.998270   -2.447345    0.076451
  H     -4.775846   -0.162062   -0.680935
  H      0.051830   -2.516771    0.401248
  O     -0.103469    2.702032    0.202387
  C      2.136562    3.444305   -0.154290
  H      1.859078    4.053747   -1.013315
  H      2.159669    4.095508    0.719054
  H      3.125353    3.018514   -0.311993
  C      1.756170   -3.653818   -0.177959
  H      2.537709   -3.795640    0.570365
  H      1.080122   -4.505113   -0.158541
  H      2.233894   -3.593235   -1.155068

 Multiplicity           Mult            ....    2
 Number of Electrons    NEL             ....  107
 Basis Dimension        Dim             ....  512

ORBITAL ENERGIES
----------------
                 SPIN UP ORBITALS
  NO   OCC          E(Eh)            E(eV)
   0   1.0000     -19.678023      -535.4662
   1   1.0000     -19.624986      -534.0230
   2   1.0000     -19.609192      -533.5932
   3   1.0000     -19.594797      -533.2015
   4   1.0000     -14.803393      -402.8208
   5   1.0000     -14.779661      -402.1750
   6   1.0000     -10.681744      -290.6650
   7   1.0000     -10.659566      -290.0615
   8   1.0000     -10.645476      -289.6781
   9   1.0000     -10.602651      -288.5128
  10   1.0000     -10.572851      -287.7019
  11   1.0000     -10.558995      -287.3249
  12   1.0000     -10.558193      -287.3030
  13   1.0000     -10.550209      -287.0858
  14   1.0000      -1.246441       -33.9174
  15   1.0000      -1.185834       -32.2682
  16   1.0000      -1.168724       -31.8026
  17   1.0000      -1.150149       -31.2971
  18   1.0000      -1.068917       -29.0867
  19   1.0000      -1.040803       -28.3217
  20   1.0000      -0.923569       -25.1316
  21   1.0000      -0.869266       -23.6539
  22   1.0000      -0.834590       -22.7104
  23   1.0000      -0.795992       -21.6600
  24   1.0000      -0.761730       -20.7277
  25   1.0000      -0.694124       -18.8881
  26   1.0000      -0.685580       -18.6556
  27   1.0000      -0.654549       -17.8112
  28   1.0000      -0.641941       -17.4681
  29   1.0000      -0.593364       -16.1463
  30   1.0000      -0.585047       -15.9199
  31   1.0000      -0.574384       -15.6298
  32   1.0000      -0.568298       -15.4642
  33   1.0000      -0.555877       -15.1262
  34   1.0000      -0.541983       -14.7481
  35   1.0000      -0.538295       -14.6477
  36   1.0000      -0.528669       -14.3858
  37   1.0000      -0.510865       -13.9014
  38   1.0000      -0.498474       -13.5642
  39   1.0000      -0.495736       -13.4897
  40   1.0000      -0.486887       -13.2489
  41   1.0000      -0.478622       -13.0240
  42   1.0000      -0.469695       -12.7811
  43   1.0000      -0.457305       -12.4439
  44   1.0000      -0.455905       -12.4058
  45   1.0000      -0.451068       -12.2742
  46   1.0000      -0.428581       -11.6623
  47   1.0000      -0.407302       -11.0833
  48   1.0000      -0.396861       -10.7991
  49   1.0000      -0.367700       -10.0056
  50   1.0000      -0.351448        -9.5634
  51   1.0000      -0.347567        -9.4578
  52   1.0000      -0.338318        -9.2061
  53   1.0000      -0.234926        -6.3927
  54   0.0000       0.040089         1.0909
  55   0.0000       0.044615         1.2140
  56   0.0000       0.049778         1.3545
  57   0.0000       0.066183         1.8009
  58   0.0000       0.068391         1.8610

                 SPIN DOWN ORBITALS
  NO   OCC          E(Eh)            E(eV)
   0   1.0000     -19.677963      -535.4646
   1   1.0000     -19.624974      -534.0227
   2   1.0000     -19.607381      -533.5440
   3   1.0000     -19.592851      -533.1486
   4   1.0000     -14.802440      -402.7949
   5   1.0000     -14.778630      -402.1470
   6   1.0000     -10.681671      -290.6630
   7   1.0000     -10.659560      -290.0614
   8   1.0000     -10.645942      -289.6908
   9   1.0000     -10.597734      -288.3790
  10   1.0000     -10.572901      -287.7033
  11   1.0000     -10.558765      -287.3186
  12   1.0000     -10.558153      -287.3020
  13   1.0000     -10.550271      -287.0875
  14   1.0000      -1.246258       -33.9124
  15   1.0000      -1.180718       -32.1290
  16   1.0000      -1.163836       -31.6696
  17   1.0000      -1.150034       -31.2940
  18   1.0000      -1.060548       -28.8590
  19   1.0000      -1.036588       -28.2070
  20   1.0000      -0.917241       -24.9594
  21   1.0000      -0.863855       -23.5067
  22   1.0000      -0.830822       -22.6078
  23   1.0000      -0.793652       -21.5964
  24   1.0000      -0.755141       -20.5484
  25   1.0000      -0.691169       -18.8077
  26   1.0000      -0.683183       -18.5904
  27   1.0000      -0.649761       -17.6809
  28   1.0000      -0.637413       -17.3449
  29   1.0000      -0.591379       -16.0922
  30   1.0000      -0.583727       -15.8840
  31   1.0000      -0.572971       -15.5913
  32   1.0000      -0.566941       -15.4273
  33   1.0000      -0.543234       -14.7821
  34   1.0000      -0.538884       -14.6638
  35   1.0000      -0.531721       -14.4689
  36   1.0000      -0.523553       -14.2466
  37   1.0000      -0.509460       -13.8631
  38   1.0000      -0.495826       -13.4921
  39   1.0000      -0.488924       -13.3043
  40   1.0000      -0.478593       -13.0232
  41   1.0000      -0.476963       -12.9788
  42   1.0000      -0.468799       -12.7567
  43   1.0000      -0.449982       -12.2446
  44   1.0000      -0.448551       -12.2057
  45   1.0000      -0.446994       -12.1633
  46   1.0000      -0.426127       -11.5955
  47   1.0000      -0.407262       -11.0821
  48   1.0000      -0.374556       -10.1922
  49   1.0000      -0.366744        -9.9796
  50   1.0000      -0.347142        -9.4462
  51   1.0000      -0.343660        -9.3515
  52   1.0000      -0.321719        -8.7544
  53   0.0000      -0.057457        -1.5635
  54   0.0000       0.042198         1.1483
  55   0.0000       0.047670         1.2972
  56   0.0000       0.060438         1.6446
  57   0.0000       0.065380         1.7791

MULLIKEN ATOMIC CHARGES AND SPIN POPULATIONS
--------------------------------------------
   0 N :   -0.319757    0.062737
   1 C :    0.088051    0.693180
   2 C :    0.383547   -0.022832
   3 O :   -0.462329    0.099571
   4 C :   -0.414866   -0.060561
   5 H :    0.178311    0.008061
   6 H :    0.205029    0.010348
   7 C :   -0.303083    0.022261
   8 H :    0.202935    0.000205
   9 H :    0.176772   -0.002813
  10 C :    0.350952    0.005571
  11 O :   -0.406085    0.000381
  12 O :   -0.330186    0.000130
  13 H :    0.273533   -0.005142
  14 C :    0.396526    0.027089
  15 N :   -0.370269    0.061235
  16 H :    0.335445    0.001235
  17 H :    0.246690   -0.002511
  18 O :   -0.397036    0.096689
  19 C :   -0.452025   -0.005625
  20 H :    0.162773    0.004382
  21 H :    0.163084    0.004193
  22 H :    0.134946    0.000512
  23 C :   -0.292649   -0.005787
  24 H :    0.154393    0.004896
  25 H :    0.135466    0.000065
  26 H :    0.159833    0.002530
Sum of atomic charges         :   -0.0000000

LOEWDIN ATOMIC CHARGES AND SPIN POPULATIONS
-------------------------------------------
   0 N :    0.198151    0.090368
   1 C :   -0.147332    0.476913
   2 C :   -0.459657    0.071381
   3 O :    0.023794    0.084191
   4 C :   -0.230500    0.040419
   5 H :    0.148559    0.004358
   6 H :    0.164311    0.006319
   7 C :   -0.221408    0.026747
   8 H :    0.164644    0.000474
   9 H :    0.157696    0.000035
  10 C :   -0.507126    0.003342
  11 O :    0.095230    0.001258
  12 O :    0.100371    0.000154
  13 H :    0.213641    0.001174
  14 C :   -0.455031    0.048845
  15 N :    0.092022    0.047459
  16 H :    0.198471    0.000802
  17 H :    0.180584    0.000268
  18 O :    0.081918    0.078809
  19 C :   -0.260107    0.003250
  20 H :    0.140620    0.002390
  21 H :    0.141794    0.002467
  22 H :    0.124503   -0.000131
  23 C :   -0.304844    0.004336
  24 H :    0.119351    0.002815
  25 H :    0.116744   -0.000037
  26 H :    0.123600    0.001595

  Mayer bond orders larger than 0.100000
B(  0-N ,  1-C ) :   1.1407 B(  0-N , 13-H ) :   0.8726 B(  0-N , 14-C ) :   1.1318
B(  1-C ,  2-C ) :   1.1608 B(  1-C ,  4-C ) :   0.9024 B(  2-C ,  3-O ) :   1.7938
B(  2-C , 15-N ) :   1.1963 B(  4-C ,  5-H ) :   1.0125 B(  4-C ,  6-H ) :   0.9583
B(  4-C ,  7-C ) :   0.8258 B(  7-C ,  8-H ) :   0.9445 B(  7-C ,  9-H ) :   0.9600
B(  7-C , 10-C ) :   0.9604 B( 10-C , 11-O ) :   1.2116 B( 10-C , 12-O ) :   2.0443
B( 11-O , 16-H ) :   0.8603 B( 14-C , 18-O ) :   1.9062 B( 14-C , 19-C ) :   0.9125
B( 15-N , 17-H ) :   0.9142 B( 15-N , 23-C ) :   0.9255 B( 19-C , 20-H ) :   0.9572
B( 19-C , 21-H ) :   0.9525 B( 19-C , 22-H ) :   0.9896 B( 23-C , 24-H ) :   0.9714
B( 23-C , 25-H ) :   0.9655 B( 23-C , 26-H ) :   0.9704

FINAL SINGLE POINT ENERGY      -723.098169397683

DIPOLE MOMENT
-------------
                                X             Y             Z
Electronic contribution:     -6.11839       1.90423       0.96060
Nuclear contribution   :      6.14379      -2.36764      -1.30651
                        -----------------------------------------
Total Dipole Moment    :      0.02541      -0.46341      -0.34591
                        -----------------------------------------
Magnitude (a.u.)       :      0.57884
Magnitude (Debye)      :      1.47129

VIBRATIONAL FREQUENCIES
-----------------------

Scaling factor for frequencies =  1.000000000  (already applied!)

   0:         0.00 cm**-1
   1:         0.00 cm**-1
   2:         0.00 cm**-1
   3:         0.00 cm**-1
   4:         0.00 cm**-1
   5:         0.00 cm**-1
   6:        31.50 cm**-1
   7:        34.15 cm**-1
   8:        56.13 cm**-1
   9:        76.98 cm**-1
  10:        88.05 cm**-1
  11:       123.40 cm**-1
  12:       130.56 cm**-1
  13:       137.06 cm**-1
  14:       143.92 cm**-1
  15:       152.65 cm**-1
  16:       181.92 cm**-1
  17:       227.31 cm**-1
  18:       262.40 cm**-1
  19:       310.84 cm**-1
  20:       319.34 cm**-1
  21:       359.45 cm**-1
  22:       379.01 cm**-1
  23:       404.91 cm**-1
  24:       484.16 cm**-1
  25:       528.24 cm**-1
  26:       532.54 cm**-1
  27:       591.81 cm**-1
  28:       618.36 cm**-1
  29:       657.60 cm**-1
  30:       663.57 cm**-1
  31:       714.11 cm**-1
  32:       746.86 cm**-1
  33:       757.56 cm**-1
  34:       804.85 cm**-1
  35:       866.74 cm**-1
  36:       919.27 cm**-1
  37:       944.44 cm**-1
  38:      1017.92 cm**-1
  39:      1039.34 cm**-1
  40:      1060.27 cm**-1
  41:      1064.46 cm**-1
  42:      1080.95 cm**-1
  43:      1162.43 cm**-1
  44:      1167.43 cm**-1
  45:      1183.79 cm**-1
  46:      1186.18 cm**-1
  47:      1228.87 cm**-1
  48:      1262.40 cm**-1
  49:      1280.55 cm**-1
  50:      1309.39 cm**-1
  51:      1343.16 cm**-1
  52:      1353.30 cm**-1
  53:      1411.10 cm**-1
  54:      1424.12 cm**-1
  55:      1432.83 cm**-1
  56:      1455.69 cm**-1
  57:      1465.34 cm**-1
  58:      1477.74 cm**-1
  59:      1483.36 cm**-1
  60:      1493.73 cm**-1
  61:      1495.57 cm**-1
  62:      1519.64 cm**-1
  63:      1553.17 cm**-1
  64:      1598.31 cm**-1
  65:      1702.90 cm**-1
  66:      1783.12 cm**-1
  67:      1861.15 cm**-1
  68:      3076.62 cm**-1
  69:      3080.24 cm**-1
  70:      3089.07 cm**-1
  71:      3105.39 cm**-1
  72:      3143.39 cm**-1
  73:      3144.77 cm**-1
  74:      3162.26 cm**-1
  75:      3169.92 cm**-1
  76:      3183.18 cm**-1
  77:      3183.26 cm**-1
  78:      3533.52 cm**-1
  79:      3696.74 cm**-1
  80:      3798.64 cm**-1

IR SPECTRUM
-----------

 Mode   freq       eps      Int      T**2         TX        TY        TZ
       cm**-1   L/(mol*cm) km/mol    a.u.
----------------------------------------------------------------------------
  6:     31.50   0.000194    0.98  0.001923  (-0.015487  0.030871  0.027020)
  7:     34.15   0.000214    1.08  0.001953  ( 0.012690 -0.042278  0.002078)
  8:     56.13   0.000107    0.54  0.000593  (-0.007343  0.014211  0.018365)
  9:     76.98   0.000934    4.72  0.003785  (-0.006158  0.000248 -0.061214)
 10:     88.05   0.003329   16.82  0.011797  ( 0.036909  0.014747  0.101078)
 11:    123.40   0.001057    5.34  0.002672  (-0.021583  0.043210 -0.018407)
 12:    130.56   0.000839    4.24  0.002005  ( 0.021758 -0.017827  0.034836)
 13:    137.06   0.000306    1.55  0.000697  ( 0.012023 -0.016084  0.017137)
 14:    143.92   0.001491    7.54  0.003233  (-0.023237 -0.034936 -0.038375)
 15:    152.65   0.000523    2.65  0.001070  ( 0.017474  0.000704  0.027645)
 16:    181.92   0.000416    2.10  0.000714  (-0.015288 -0.002812  0.021740)
 17:    227.31   0.000342    1.73  0.000470  ( 0.003868  0.019083 -0.009520)
 18:    262.40   0.002597   13.12  0.003088  ( 0.025293  0.049169  0.005536)
 19:    310.84   0.000967    4.89  0.000971  (-0.009560  0.017340 -0.024063)
 20:    319.34   0.008074   40.80  0.007890  (-0.038490  0.000587 -0.080049)
 21:    359.45   0.002337   11.81  0.002029  (-0.004419 -0.036922 -0.025425)
 22:    379.01   0.001104    5.58  0.000909  ( 0.007850  0.025436  0.014154)
 23:    404.91   0.001060    5.36  0.000817  ( 0.004394 -0.027447  0.006636)
 24:    484.16   0.003183   16.08  0.002051  (-0.030277  0.009356 -0.032359)
 25:    528.24   0.009526   48.14  0.005627  (-0.043484 -0.059021 -0.015906)
 26:    532.54   0.002322   11.74  0.001361  (-0.023692  0.018109  0.021718)
 27:    591.81   0.006431   32.50  0.003391  ( 0.046010 -0.035570  0.002947)
 28:    618.36   0.001759    8.89  0.000888  (-0.015225 -0.001793 -0.025544)
 29:    657.60   0.011700   59.13  0.005552  (-0.022471  0.066245  0.025667)
 30:    663.57   0.005974   30.19  0.002809  ( 0.034389  0.038620  0.011627)
 31:    714.11   0.002280   11.52  0.000996  ( 0.002118  0.030837  0.006407)
 32:    746.86   0.003219   16.27  0.001345  ( 0.018969 -0.003115  0.031232)
 33:    757.56   0.008833   44.64  0.003639  (-0.021593  0.006326 -0.055969)
 34:    804.85   0.003709   18.74  0.001438  ( 0.010543  0.034766  0.010869)
 35:    866.74   0.000277    1.40  0.000100  ( 0.005716 -0.007837 -0.002380)
 36:    919.27   0.000835    4.22  0.000283  (-0.016160  0.004696 -0.000492)
 37:    944.44   0.002965   14.99  0.000980  ( 0.029542  0.010095 -0.002288)
 38:   1017.92   0.001689    8.54  0.000518  (-0.002289  0.021262 -0.007780)
 39:   1039.34   0.000886    4.48  0.000266  (-0.002436 -0.014833 -0.006329)
 40:   1060.27   0.001487    7.52  0.000438  ( 0.004269  0.006409  0.019452)
 41:   1064.46   0.001733    8.76  0.000508  ( 0.018736 -0.008917  0.008801)
 42:   1080.95   0.000070    0.35  0.000020  (-0.004447 -0.000248 -0.000569)
 43:   1162.43   0.000172    0.87  0.000046  (-0.002170 -0.006243  0.001596)
 44:   1167.43   0.002812   14.21  0.000752  (-0.023252  0.001867 -0.014403)
 45:   1183.79   0.045933  232.13  0.012109  ( 0.085775 -0.011249  0.068005)
 46:   1186.18   0.004100   20.72  0.001079  (-0.019567  0.025878 -0.005120)
 47:   1228.87   0.008678   43.85  0.002204  (-0.014350  0.044194  0.006683)
 48:   1262.40   0.001011    5.11  0.000250  ( 0.009758  0.007196 -0.010145)
 49:   1280.55   0.006574   33.22  0.001602  ( 0.031977 -0.016465  0.017561)
 50:   1309.39   0.007759   39.21  0.001849  ( 0.013303 -0.040889 -0.000658)
 51:   1343.16   0.016912   85.47  0.003929  ( 0.029768 -0.053567  0.013181)
 52:   1353.30   0.042659  215.58  0.009837  ( 0.003270  0.098937  0.006132)
 53:   1411.10   0.008960   45.28  0.001982  (-0.006760 -0.043756  0.004611)
 54:   1424.12   0.020747  104.85  0.004546  ( 0.060420  0.015110  0.025835)
 55:   1432.83   0.009448   47.74  0.002058  ( 0.032197 -0.025681  0.019013)
 56:   1455.69   0.002794   14.12  0.000599  ( 0.008579  0.022229 -0.005596)
 57:   1465.34   0.003244   16.39  0.000691  ( 0.024549  0.006211 -0.007047)
 58:   1477.74   0.001589    8.03  0.000335  (-0.006902  0.003478 -0.016605)
 59:   1483.36   0.005408   27.33  0.001138  (-0.001371  0.025577  0.021948)
 60:   1493.73   0.011231   56.75  0.002346  ( 0.028535 -0.033695 -0.019915)
 61:   1495.57   0.004739   23.95  0.000989  (-0.026538  0.015003  0.007719)
 62:   1519.64   0.010034   50.71  0.002060  ( 0.007278 -0.044804  0.000222)
 63:   1553.17   0.144249  728.98  0.028983  (-0.003949 -0.170124  0.004978)
 64:   1598.31   0.002222   11.23  0.000434  (-0.017493 -0.009836  0.005573)
 65:   1702.90   0.066851  337.84  0.012251  (-0.108205  0.006432  0.022385)
 66:   1783.12   0.043878  221.74  0.007679  (-0.068592  0.054119  0.006733)
 67:   1861.15   0.062532  316.01  0.010485  (-0.020165 -0.032819  0.094875)
 68:   3076.62   0.007892   39.89  0.000801  ( 0.010805 -0.026139  0.000743)
 69:   3080.24   0.001344    6.79  0.000136  (-0.007871 -0.006530 -0.005615)
 70:   3089.07   0.000428    2.16  0.000043  ( 0.005846  0.002856 -0.000939)
 71:   3105.39   0.002032   10.27  0.000204  ( 0.000136 -0.012206  0.007432)
 72:   3143.39   0.002170   10.97  0.000215  (-0.004628 -0.002258 -0.013746)
 73:   3144.77   0.000586    2.96  0.000058  ( 0.006828  0.003151  0.001284)
 74:   3162.26   0.000092    0.47  0.000009  (-0.002703  0.001318 -0.000228)
 75:   3169.92   0.000127    0.64  0.000012  (-0.000956  0.000026  0.003397)
 76:   3183.18   0.000980    4.95  0.000096  (-0.007616  0.006143  0.000549)
 77:   3183.26   0.001813    9.16  0.000178  (-0.010666 -0.007617  0.002428)
 78:   3533.52   0.019903  100.58  0.001758  ( 0.035083 -0.021767 -0.007293)
 79:   3696.74   0.008738   44.16  0.000738  (-0.024009 -0.010738  0.006773)
 80:   3798.64   0.018927   95.65  0.001555  ( 0.039203  0.003981 -0.001480)

--------------------------
THERMOCHEMISTRY AT 298.15K
--------------------------

Temperature         ... 298.15 K
Pressure            ... 1.00 atm
Total Mass          ... 201.20 AMU

Throughout the following assumptions are being made:
  (1) The electronic state is orbitally nondegenerate
      but the spin degeneracy is treated
  (2) There are no thermally accessible electronically excited states
  (3) Hindered rotations indicated by low frequency modes are not
      treated as such but are treated as vibrations and this may
      cause some error
  (4) All equations used are the standard statistical mechanics
      equations for an ideal gas
  (5) All vibrations are strictly harmonic

freq.      31.50  E(vib)   ...       0.55
freq.      34.15  E(vib)   ...       0.55
freq.      56.13  E(vib)   ...       0.52
freq.      76.98  E(vib)   ...       0.49
freq.      88.05  E(vib)   ...       0.48
freq.     123.40  E(vib)   ...       0.43
freq.     130.56  E(vib)   ...       0.43
freq.     137.06  E(vib)   ...       0.42
freq.     143.92  E(vib)   ...       0.41
freq.     152.65  E(vib)   ...       0.40
freq.     181.92  E(vib)   ...       0.37
freq.     227.31  E(vib)   ...       0.33
freq.     262.40  E(vib)   ...       0.29
freq.     310.84  E(vib)   ...       0.26
freq.     319.34  E(vib)   ...       0.25
freq.     359.45  E(vib)   ...       0.22
freq.     379.01  E(vib)   ...       0.21
freq.     404.91  E(vib)   ...       0.19
freq.     484.16  E(vib)   ...       0.15
freq.     528.24  E(vib)   ...       0.13
freq.     532.54  E(vib)   ...       0.13
freq.     591.81  E(vib)   ...       0.10
freq.     618.36  E(vib)   ...       0.09
freq.     657.60  E(vib)   ...       0.08
freq.     663.57  E(vib)   ...       0.08
freq.     714.11  E(vib)   ...       0.07
freq.     746.86  E(vib)   ...       0.06
freq.     757.56  E(vib)   ...       0.06
freq.     804.85  E(vib)   ...       0.05
freq.     866.74  E(vib)   ...       0.04
freq.     919.27  E(vib)   ...       0.03
freq.     944.44  E(vib)   ...       0.03
freq.    1017.92  E(vib)   ...       0.02
freq.    1039.34  E(vib)   ...       0.02
freq.    1060.27  E(vib)   ...       0.02
freq.    1064.46  E(vib)   ...       0.02
freq.    1080.95  E(vib)   ...       0.02
freq.    1162.43  E(vib)   ...       0.01
freq.    1167.43  E(vib)   ...       0.01
freq.    1183.79  E(vib)   ...       0.01
freq.    1186.18  E(vib)   ...       0.01
freq.    1228.87  E(vib)   ...       0.01
freq.    1262.40  E(vib)   ...       0.01
freq.    1280.55  E(vib)   ...       0.01
freq.    1309.39  E(vib)   ...       0.01
freq.    1343.16  E(vib)   ...       0.01
freq.    1353.30  E(vib)   ...       0.01
freq.    1411.10  E(vib)   ...       0.00
freq.    1424.12  E(vib)   ...       0.00
freq.    1432.83  E(vib)   ...       0.00
freq.    1455.69  E(vib)   ...       0.00
freq.    1465.34  E(vib)   ...       0.00
freq.    1477.74  E(vib)   ...       0.00
freq.    1483.36  E(vib)   ...       0.00
freq.    1493.73  E(vib)   ...       0.00
freq.    1495.57  E(vib)   ...       0.00
freq.    1519.64  E(vib)   ...       0.00
freq.    1553.17  E(vib)   ...       0.00
freq.    1598.31  E(vib)   ...       0.00
freq.    1702.90  E(vib)   ...       0.00
freq.    1783.12  E(vib)   ...       0.00
freq.    1861.15  E(vib)   ...       0.00
freq.    3076.62  E(vib)   ...       0.00
freq.    3080.24  E(vib)   ...       0.00
freq.    3089.07  E(vib)   ...       0.00
freq.    3105.39  E(vib)   ...       0.00
freq.    3143.39  E(vib)   ...       0.00
freq.    3144.77  E(vib)   ...       0.00
freq.    3162.26  E(vib)   ...       0.00
freq.    3169.92  E(vib)   ...       0.00
freq.    3183.18  E(vib)   ...       0.00
freq.    3183.26  E(vib)   ...       0.00
freq.    3533.52  E(vib)   ...       0.00
freq.    3696.74  E(vib)   ...       0.00
freq.    3798.64  E(vib)   ...       0.00

------------
INNER ENERGY
------------

The inner energy is: U= E(el) + E(ZPE) + E(vib) + E(rot) + E(trans)
    E(el)   - is the total energy from the electronic structure calculation
              = E(kin-el) + E(nuc-el) + E(el-el) + E(nuc-nuc)
    E(ZPE)  - the the zero temperature vibrational energy from the frequency calculation
    E(vib)  - the the finite temperature correction to E(ZPE) due to population
              of excited vibrational states
    E(rot)  - is the rotational thermal energy
    E(trans)- is the translational thermal energy

Summary of contributions to the inner energy U:
Electronic energy                ...   -723.09816940 Eh
Zero point energy                ...      0.21987713 Eh     137.97 kcal/mol
Thermal vibrational correction   ...      0.01290347 Eh       8.10 kcal/mol
Thermal rotational correction    ...      0.00141627 Eh       0.89 kcal/mol
Thermal translational correction ...      0.00141627 Eh       0.89 kcal/mol
-----------------------------------------------------------------------
Total thermal energy                   -722.86255625 Eh

Summary of corrections to the electronic energy:
(perhaps to be used in another calculation)
Total thermal correction                  0.01573602 Eh       9.87 kcal/mol
Non-thermal (ZPE) correction              0.21987713 Eh     137.97 kcal/mol
-----------------------------------------------------------------------
Total correction                          0.23561315 Eh     147.85 kcal/mol

--------
ENTHALPY
--------

The enthalpy is H = U + kB*T
                kB is Boltzmann's constant
Total free energy                 ...   -722.86255625 Eh
Thermal Enthalpy correction       ...      0.00094421 Eh       0.59 kcal/mol
-----------------------------------------------------------------------
Total Enthalpy                    ...   -722.86161204 Eh

Note: Only C1 symmetry has been detected, increase convergence thresholds
      if your molecule has a higher symmetry. Symmetry factor of 1.0 is
      used for the rotational entropy correction.

Note: Rotational entropy computed according to Herzberg
Infrared and Raman Spectra, Chapter V,1, Van Nostrand Reinhold, 1945
Point Group:  C1, Symmetry Number:   1
Rotational constants in cm-1:     0.021250     0.016766     0.010007

Vibrational entropy computed according to the QRRHO of S. Grimme
Chem.Eur.J. 2012 18 9955

-------
ENTROPY
-------

The entropy contributions are T*S = T*(S(el)+S(vib)+S(rot)+S(trans))
     S(el)   - electronic entropy
     S(vib)  - vibrational entropy
     S(rot)  - rotational entropy
     S(trans)- translational entropy
The entropies will be listed as multiplied by the temperature to get

                             ****ORCA TERMINATED NORMALLY****
TOTAL RUN TIME: 0 days 0 hours 31 minutes 0 seconds 812 msec
