                         Program Version 5.0.4 -  RELEASE  -
|  1> ! B3LYP EPR-II OPT
|  2> %pal nprocs 16 end
|  3> *XYZFile 0 2 model.xyz
|  4>
|  5>                          ****END OF INPUT****
 Total Charge           Charge          ....    0
 Multiplicity           Mult            ....    2
 Number of Electrons    NEL             ....  107
FINAL SINGLE POINT ENERGY      -722.865619914378
FINAL SINGLE POINT ENERGY      -722.867594609397
FINAL SINGLE POINT ENERGY      -722.867697391744
FINAL SINGLE POINT ENERGY      -722.867710099438
FINAL SINGLE POINT ENERGY      -722.867734476266
FINAL SINGLE POINT ENERGY      -722.867742312010
FINAL SINGLE POINT ENERGY      -722.867749868472
FINAL SINGLE POINT ENERGY      -722.867765700377
FINAL SINGLE POINT ENERGY      -722.867778054971
FINAL SINGLE POINT ENERGY      -722.867786188899
FINAL SINGLE POINT ENERGY      -722.867874847781
FINAL SINGLE POINT ENERGY      -722.867895612862
FINAL SINGLE POINT ENERGY      -722.867921527244
FINAL SINGLE POINT ENERGY      -722.867927457719
FINAL SINGLE POINT ENERGY      -722.867937500527
FINAL SINGLE POINT ENERGY      -722.867944199862
FINAL SINGLE POINT ENERGY      -722.867953330944
FINAL SINGLE POINT ENERGY      -722.867960116768
FINAL SINGLE POINT ENERGY      -722.867963058056
                    ***********************HURRAY********************

CARTESIAN COORDINATES (ANGSTROEM)
---------------------------------
  N      1.485187    1.112645   -0.009513
  C      0.781677   -0.058903    0.207470
  C      1.626076   -1.240226   -0.067765
  O      2.810797   -1.093827   -0.427647
  C     -0.650314   -0.083706    0.664539
  H     -0.867696   -1.032662    1.162218
  H     -0.809460    0.699549    1.409022
  C     -1.671503    0.119113   -0.479402
  H     -1.659327    1.154983   -0.825865
  H     -1.429220   -0.513968   -1.342895
  C     -3.081693   -0.248591   -0.051120
  O     -4.015393    0.245546   -0.904947
  O     -3.378183   -0.924249    0.915501
  H      2.446871    0.909795   -0.281211
  C      1.074959    2.432391    0.070156
  N      1.046540   -2.480367    0.058426
  H     -4.877377   -0.053770   -0.572021
  H      0.136126   -2.543905    0.484971
  O     -0.078248    2.768295    0.334084
  C      2.173636    3.456515   -0.186711
  H      1.831469    4.146719   -0.962303
  H      2.323898    4.037820    0.728144
  H      3.126053    3.013692   -0.488262
  C      1.827801   -3.704100   -0.075096
  H      2.259330   -4.022757    0.882394
  H      1.191593   -4.503823   -0.463376
  H      2.644080   -3.518820   -0.773584

 Multiplicity           Mult            ....    2
 Number of Electrons    NEL             ....  107
 Basis Dimension        Dim             ....  329

ORBITAL ENERGIES
----------------
                 SPIN UP ORBITALS
  NO   OCC          E(Eh)            E(eV)
   0   1.0000     -19.196600      -522.3660
   1   1.0000     -19.144962      -520.9609
   2   1.0000     -19.124144      -520.3944
   3   1.0000     -19.112854      -520.0872
   4   1.0000     -14.386739      -391.4831
   5   1.0000     -14.365572      -390.9071
   6   1.0000     -10.335614      -281.2464
   7   1.0000     -10.308130      -280.4985
   8   1.0000     -10.298456      -280.2352
   9   1.0000     -10.254486      -279.0388
  10   1.0000     -10.219808      -278.0951
  11   1.0000     -10.211188      -277.8606
  12   1.0000     -10.209741      -277.8212
  13   1.0000     -10.198325      -277.5105
  14   1.0000      -1.112204       -30.2646
  15   1.0000      -1.049494       -28.5582
  16   1.0000      -1.034699       -28.1556
  17   1.0000      -1.022304       -27.8183
  18   1.0000      -0.949594       -25.8398
  19   1.0000      -0.924466       -25.1560
  20   1.0000      -0.814748       -22.1704
  21   1.0000      -0.765610       -20.8333
  22   1.0000      -0.733646       -19.9635
  23   1.0000      -0.700331       -19.0570
  24   1.0000      -0.668595       -18.1934
  25   1.0000      -0.606030       -16.4909
  26   1.0000      -0.598222       -16.2784
  27   1.0000      -0.567506       -15.4426
  28   1.0000      -0.554723       -15.0948
  29   1.0000      -0.505866       -13.7653
  30   1.0000      -0.491793       -13.3824
  31   1.0000      -0.487745       -13.2722
  32   1.0000      -0.482918       -13.1409
  33   1.0000      -0.467770       -12.7287
  34   1.0000      -0.460459       -12.5297
  35   1.0000      -0.453580       -12.3425
  36   1.0000      -0.448639       -12.2081
  37   1.0000      -0.432916       -11.7803
  38   1.0000      -0.421461       -11.4685
  39   1.0000      -0.415812       -11.3148
  40   1.0000      -0.409383       -11.1399
  41   1.0000      -0.406790       -11.0693
  42   1.0000      -0.397710       -10.8222
  43   1.0000      -0.385865       -10.4999
  44   1.0000      -0.380955       -10.3663
  45   1.0000      -0.379628       -10.3302
  46   1.0000      -0.362791        -9.8720
  47   1.0000      -0.329952        -8.9784
  48   1.0000      -0.323248        -8.7960
  49   1.0000      -0.288831        -7.8595
  50   1.0000      -0.273080        -7.4309
  51   1.0000      -0.267554        -7.2805
  52   1.0000      -0.265803        -7.2329
  53   1.0000      -0.184554        -5.0220
  54   0.0000      -0.004038        -0.1099
  55   0.0000       0.005270         0.1434
  56   0.0000       0.008529         0.2321
  57   0.0000       0.019441         0.5290
  58   0.0000       0.024612         0.6697

                 SPIN DOWN ORBITALS
  NO   OCC          E(Eh)            E(eV)
   0   1.0000     -19.196530      -522.3641
   1   1.0000     -19.144958      -520.9608
   2   1.0000     -19.121480      -520.3219
   3   1.0000     -19.110343      -520.0189
   4   1.0000     -14.385185      -391.4408
   5   1.0000     -14.364042      -390.8655
   6   1.0000     -10.335533      -281.2441
   7   1.0000     -10.307636      -280.4850
   8   1.0000     -10.298846      -280.2459
   9   1.0000     -10.244559      -278.7686
  10   1.0000     -10.219888      -278.0973
  11   1.0000     -10.210418      -277.8396
  12   1.0000     -10.210174      -277.8330
  13   1.0000     -10.198421      -277.5131
  14   1.0000      -1.112062       -30.2607
  15   1.0000      -1.044426       -28.4203
  16   1.0000      -1.030338       -28.0369
  17   1.0000      -1.022236       -27.8165
  18   1.0000      -0.942321       -25.6418
  19   1.0000      -0.920815       -25.0566
  20   1.0000      -0.809144       -22.0179
  21   1.0000      -0.760348       -20.6901
  22   1.0000      -0.730699       -19.8833
  23   1.0000      -0.698242       -19.0001
  24   1.0000      -0.663164       -18.0456
  25   1.0000      -0.603795       -16.4301
  26   1.0000      -0.596279       -16.2256
  27   1.0000      -0.564366       -15.3572
  28   1.0000      -0.550839       -14.9891
  29   1.0000      -0.504423       -13.7260
  30   1.0000      -0.490641       -13.3510
  31   1.0000      -0.486471       -13.2375
  32   1.0000      -0.481958       -13.1147
  33   1.0000      -0.459129       -12.4935
  34   1.0000      -0.457211       -12.4414
  35   1.0000      -0.449626       -12.2349
  36   1.0000      -0.444029       -12.0826
  37   1.0000      -0.431314       -11.7366
  38   1.0000      -0.415451       -11.3050
  39   1.0000      -0.411514       -11.1979
  40   1.0000      -0.407317       -11.0837
  41   1.0000      -0.403417       -10.9775
  42   1.0000      -0.396933       -10.8011
  43   1.0000      -0.380591       -10.3564
  44   1.0000      -0.376981       -10.2582
  45   1.0000      -0.374466       -10.1897
  46   1.0000      -0.360274        -9.8036
  47   1.0000      -0.329910        -8.9773
  48   1.0000      -0.303539        -8.2597
  49   1.0000      -0.288373        -7.8470
  50   1.0000      -0.267229        -7.2717
  51   1.0000      -0.264647        -7.2014
  52   1.0000      -0.254998        -6.9389
  53   0.0000      -0.091956        -2.5023
  54   0.0000      -0.003665        -0.0997
  55   0.0000       0.008778         0.2389
  56   0.0000       0.018258         0.4968
  57   0.0000       0.019748         0.5374

MULLIKEN ATOMIC CHARGES AND SPIN POPULATIONS
--------------------------------------------
   0 N :   -0.029521    0.063430
   1 C :    0.149205    0.654780
   2 C :    0.012867   -0.012229
   3 O :   -0.377068    0.093393
   4 C :   -0.320207   -0.041835
   5 H :    0.130452    0.004392
   6 H :    0.195040    0.012567
   7 C :   -0.270378    0.025719
   8 H :    0.216051   -0.000503
   9 H :    0.177914   -0.001043
  10 C :    0.108485    0.005424
  11 O :   -0.268890    0.000602
  12 O :   -0.258375   -0.000187
  13 H :    0.252261   -0.003866
  14 C :    0.111785    0.032708
  15 N :   -0.111589    0.061760
  16 H :    0.287730    0.001063
  17 H :    0.223073   -0.001823
  18 O :   -0.288856    0.096640
  19 C :   -0.541371   -0.003985
  20 H :    0.188495    0.004518
  21 H :    0.189285    0.004598
  22 H :    0.152384   -0.000099
  23 C :   -0.447243   -0.005656
  24 H :    0.168778    0.007488
  25 H :    0.151659    0.001802
  26 H :    0.198033    0.000342
Sum of atomic charges         :   -0.0000000

LOEWDIN ATOMIC CHARGES AND SPIN POPULATIONS
-------------------------------------------
   0 N :    0.129111    0.076870
   1 C :   -0.044099    0.530328
   2 C :   -0.110620    0.031378
   3 O :   -0.225795    0.090156
   4 C :   -0.041079    0.006876
   5 H :    0.049071    0.003366
   6 H :    0.071621    0.009991
   7 C :   -0.032068    0.031021
   8 H :    0.072188    0.000016
   9 H :    0.068335   -0.000037
  10 C :   -0.084134    0.003607
  11 O :    0.016727    0.001521
  12 O :   -0.148259    0.000157
  13 H :    0.103709    0.002198
  14 C :   -0.097483    0.047609
  15 N :    0.034655    0.057956
  16 H :    0.101328    0.000639
  17 H :    0.073111    0.000790
  18 O :   -0.170114    0.091678
  19 C :   -0.037741   -0.000067
  20 H :    0.055801    0.003267
  21 H :    0.056964    0.003614
  22 H :    0.035609   -0.000169
  23 C :    0.008418    0.000330
  24 H :    0.031786    0.005111
  25 H :    0.031519    0.001414
  26 H :    0.051439    0.000381

  Mayer bond orders larger than 0.100000
B(  0-N ,  1-C ) :   1.2453 B(  0-N , 13-H ) :   0.8696 B(  0-N , 14-C ) :   1.1598
B(  1-C ,  2-C ) :   1.0676 B(  1-C ,  4-C ) :   0.9769 B(  2-C ,  3-O ) :   1.7448
B(  2-C , 15-N ) :   1.1749 B(  4-C ,  5-H ) :   0.9724 B(  4-C ,  6-H ) :   0.9570
B(  4-C ,  7-C ) :   0.9378 B(  7-C ,  8-H ) :   0.9495 B(  7-C ,  9-H ) :   0.9618
B(  7-C , 10-C ) :   0.8921 B( 10-C , 11-O ) :   1.1422 B( 10-C , 12-O ) :   1.9601
B( 11-O , 16-H ) :   0.8946 B( 14-C , 18-O ) :   1.8944 B( 14-C , 19-C ) :   0.8984
B( 15-N , 17-H ) :   0.9255 B( 15-N , 23-C ) :   0.9737 B( 19-C , 20-H ) :   0.9566
B( 19-C , 21-H ) :   0.9545 B( 19-C , 22-H ) :   0.9737 B( 23-C , 24-H ) :   0.9552
B( 23-C , 25-H ) :   0.9657 B( 23-C , 26-H ) :   0.9450

FINAL SINGLE POINT ENERGY      -722.867964049507

DIPOLE MOMENT
-------------
                                X             Y             Z
Electronic contribution:     -6.31253       1.73169       0.65392
Nuclear contribution   :      6.34348      -2.24113      -0.93608
                        -----------------------------------------
Total Dipole Moment    :      0.03095      -0.50945      -0.28216
                        -----------------------------------------
Magnitude (a.u.)       :      0.58319
Magnitude (Debye)      :      1.48234

Rotational constants in cm-1:     0.020771     0.016295     0.009657
Rotational constants in MHz :   622.705631   488.519217   289.510184

                             ****ORCA TERMINATED NORMALLY****
TOTAL RUN TIME: 0 days 0 hours 12 minutes 31 seconds 981 msec
