                         Program Version 5.0.4 -  RELEASE  -
|  1> ! B3LYP EPR-II AUTOAUX
|  2> %pal nprocs 16 end
|  3> *XYZFile -1 2 opt.xyz
|  4> %EPRNMR
|  5>         GTENSOR   TRUE
|  6>         NUCLEI    = 1,8,9,10,23,24,25,26 {SHIFT, AISO, ADIP, AORB}
|  7>         ORI       GIAO
|  8> END
|  9>
| 10>                          ****END OF INPUT****

CARTESIAN COORDINATES (ANGSTROEM)
---------------------------------
  N     -3.762577    0.008430   -0.032225
  C     -2.310673   -0.133261   -0.149045
  C     -1.779626   -0.268867    1.303003
  O     -2.529314   -0.755666    2.173711
  C     -1.654350    0.969592   -1.030140
  C     -1.632722    2.359820   -0.461378
  C     -0.369367    2.990775    0.043130
  O      0.595053    2.178996    0.320618
  O     -0.353380    4.243838    0.129615
  H     -4.083699   -0.038888    0.928370
  C     -4.625713   -0.351702   -1.020536
  N     -0.501010    0.090799    1.519825
  H     -0.042319    0.840932    0.914445
  O     -4.274935   -0.673350   -2.160009
  C     -6.109393   -0.293769   -0.644317
  H     -6.574800   -1.244146   -0.919090
  H     -6.281802   -0.092506    0.416657
  H     -6.583626    0.494600   -1.236874
  C      0.036962   -0.012791    2.871638
  H      0.076052   -1.057381    3.198987
  H      1.045602    0.405047    2.863466
  H     -0.574685    0.540091    3.594849
  H     -2.102970   -1.096466   -0.639657
  H     -0.622527    0.659952   -1.224749
  H     -2.197472    0.942856   -1.983321
  H     -2.533627    2.970226   -0.485986

 Total Charge           Charge          ....   -1
 Multiplicity           Mult            ....    2
 Number of Electrons    NEL             ....  107
 Basis Dimension        Dim             ....  322

ORBITAL ENERGIES
----------------
                 SPIN UP ORBITALS
  NO   OCC          E(Eh)            E(eV)
   0   1.0000     -19.004599      -517.1414
   1   1.0000     -18.992366      -516.8086
   2   1.0000     -18.929366      -515.0942
   3   1.0000     -18.927654      -515.0477
   4   1.0000     -14.245147      -387.6302
   5   1.0000     -14.214857      -386.8059
   6   1.0000     -10.190912      -277.3088
   7   1.0000     -10.169638      -276.7299
   8   1.0000     -10.122024      -275.4343
   9   1.0000     -10.121511      -275.4203
  10   1.0000     -10.100202      -274.8405
  11   1.0000     -10.093606      -274.6610
  12   1.0000     -10.064625      -273.8724
  13   1.0000     -10.060056      -273.7480
  14   1.0000      -0.925105       -25.1734
  15   1.0000      -0.908136       -24.7116
  16   1.0000      -0.859521       -23.3888
  17   1.0000      -0.811013       -22.0688
  18   1.0000      -0.787692       -21.4342
  19   1.0000      -0.771356       -20.9897
  20   1.0000      -0.672625       -18.3031
  21   1.0000      -0.634455       -17.2644
  22   1.0000      -0.593701       -16.1554
  23   1.0000      -0.559619       -15.2280
  24   1.0000      -0.500287       -13.6135
  25   1.0000      -0.461466       -12.5571
  26   1.0000      -0.437968       -11.9177
  27   1.0000      -0.416218       -11.3259
  28   1.0000      -0.377851       -10.2818
  29   1.0000      -0.366855        -9.9826
  30   1.0000      -0.351747        -9.5715
  31   1.0000      -0.345085        -9.3902
  32   1.0000      -0.334954        -9.1146
  33   1.0000      -0.325496        -8.8572
  34   1.0000      -0.316322        -8.6076
  35   1.0000      -0.305163        -8.3039
  36   1.0000      -0.296925        -8.0797
  37   1.0000      -0.290181        -7.8962
  38   1.0000      -0.283639        -7.7182
  39   1.0000      -0.269171        -7.3245
  40   1.0000      -0.261528        -7.1165
  41   1.0000      -0.251589        -6.8461
  42   1.0000      -0.242529        -6.5995
  43   1.0000      -0.233186        -6.3453
  44   1.0000      -0.228712        -6.2236
  45   1.0000      -0.218447        -5.9442
  46   1.0000      -0.156389        -4.2556
  47   1.0000      -0.149175        -4.0593
  48   1.0000      -0.142735        -3.8840
  49   1.0000      -0.129717        -3.5298
  50   1.0000      -0.098330        -2.6757
  51   1.0000      -0.092916        -2.5284
  52   1.0000      -0.079213        -2.1555
  53   1.0000      -0.063479        -1.7274
  54   0.0000       0.102081         2.7778
  55   0.0000       0.119402         3.2491
  56   0.0000       0.128547         3.4980
  57   0.0000       0.136777         3.7219
  58   0.0000       0.153809         4.1853

                 SPIN DOWN ORBITALS
  NO   OCC          E(Eh)            E(eV)
   0   1.0000     -19.004564      -517.1405
   1   1.0000     -18.992347      -516.8080
   2   1.0000     -18.928411      -515.0682
   3   1.0000     -18.924335      -514.9573
   4   1.0000     -14.245195      -387.6315
   5   1.0000     -14.214832      -386.8053
   6   1.0000     -10.190912      -277.3088
   7   1.0000     -10.169673      -276.7309
   8   1.0000     -10.122672      -275.4519
   9   1.0000     -10.120689      -275.3980
  10   1.0000     -10.100203      -274.8405
  11   1.0000     -10.093609      -274.6611
  12   1.0000     -10.065438      -273.8945
  13   1.0000     -10.047515      -273.4068
  14   1.0000      -0.925036       -25.1715
  15   1.0000      -0.908069       -24.7098
  16   1.0000      -0.855763       -23.2865
  17   1.0000      -0.810745       -22.0615
  18   1.0000      -0.786530       -21.4026
  19   1.0000      -0.767650       -20.8888
  20   1.0000      -0.668990       -18.2041
  21   1.0000      -0.630707       -17.1624
  22   1.0000      -0.587738       -15.9932
  23   1.0000      -0.552980       -15.0474
  24   1.0000      -0.490476       -13.3465
  25   1.0000      -0.458851       -12.4860
  26   1.0000      -0.436351       -11.8737
  27   1.0000      -0.415820       -11.3150
  28   1.0000      -0.376222       -10.2375
  29   1.0000      -0.366246        -9.9661
  30   1.0000      -0.348275        -9.4770
  31   1.0000      -0.342888        -9.3305
  32   1.0000      -0.332943        -9.0599
  33   1.0000      -0.324805        -8.8384
  34   1.0000      -0.314624        -8.5613
  35   1.0000      -0.304688        -8.2910
  36   1.0000      -0.293828        -7.9955
  37   1.0000      -0.288249        -7.8436
  38   1.0000      -0.279822        -7.6143
  39   1.0000      -0.267885        -7.2895
  40   1.0000      -0.259818        -7.0700
  41   1.0000      -0.247166        -6.7257
  42   1.0000      -0.240589        -6.5468
  43   1.0000      -0.230540        -6.2733
  44   1.0000      -0.222050        -6.0423
  45   1.0000      -0.214368        -5.8332
  46   1.0000      -0.154707        -4.2098
  47   1.0000      -0.148901        -4.0518
  48   1.0000      -0.141895        -3.8612
  49   1.0000      -0.129276        -3.5178
  50   1.0000      -0.088773        -2.4156
  51   1.0000      -0.084775        -2.3068
  52   1.0000      -0.070293        -1.9128
  53   0.0000       0.060576         1.6484
  54   0.0000       0.102366         2.7855
  55   0.0000       0.119932         3.2635
  56   0.0000       0.128788         3.5045
  57   0.0000       0.137153         3.7321

MULLIKEN ATOMIC CHARGES AND SPIN POPULATIONS
--------------------------------------------
   0 N :   -0.095854   -0.002000
   1 C :   -0.050882    0.048201
   2 C :    0.026974    0.006102
   3 O :   -0.404721   -0.000841
   4 C :   -0.341661   -0.050172
   5 C :   -0.142917    0.931422
   6 C :    0.102417   -0.073303
   7 O :   -0.450736    0.035547
   8 O :   -0.424289    0.121846
   9 H :    0.237600    0.000384
  10 C :    0.177751   -0.001055
  11 N :   -0.061080   -0.002371
  12 H :    0.257844   -0.001695
  13 O :   -0.347422    0.001097
  14 C :   -0.575325    0.000062
  15 H :    0.172366    0.000024
  16 H :    0.148300    0.000018
  17 H :    0.176305    0.000018
  18 C :   -0.471985   -0.000501
  19 H :    0.151374    0.000082
  20 H :    0.157243   -0.000001
  21 H :    0.161857    0.000274
  22 H :    0.158957    0.004734
  23 H :    0.167584    0.004479
  24 H :    0.147399    0.020847
  25 H :    0.122900   -0.043199
Sum of atomic charges         :   -1.0000000

LOEWDIN ATOMIC CHARGES AND SPIN POPULATIONS
-------------------------------------------
   0 N :    0.066342    0.000089
   1 C :   -0.039770    0.047449
   2 C :   -0.106289    0.002748
   3 O :   -0.249414    0.000545
   4 C :   -0.076105    0.012194
   5 C :   -0.022073    0.761334
   6 C :   -0.214845   -0.012405
   7 O :   -0.325159    0.035195
   8 O :   -0.275135    0.119904
   9 H :    0.088636    0.000750
  10 C :   -0.112197    0.000461
  11 N :    0.032263    0.001393
  12 H :    0.081304    0.000116
  13 O :   -0.214421    0.001085
  14 C :   -0.056172    0.000035
  15 H :    0.046229   -0.000005
  16 H :    0.031375    0.000013
  17 H :    0.048587    0.000046
  18 C :   -0.014449   -0.000001
  19 H :    0.027483    0.000116
  20 H :    0.034329   -0.000004
  21 H :    0.032143    0.000071
  22 H :    0.067119    0.003103
  23 H :    0.057204    0.002972
  24 H :    0.056160    0.016722
  25 H :    0.036854    0.006073

  Mayer bond orders larger than 0.100000
B(  0-N ,  1-C ) :   1.0053 B(  0-N ,  9-H ) :   0.8963 B(  0-N , 10-C ) :   1.2329
B(  1-C ,  2-C ) :   0.9127 B(  1-C ,  4-C ) :   0.9317 B(  1-C , 13-O ) :   0.1109
B(  1-C , 22-H ) :   0.9767 B(  2-C ,  3-O ) :   1.7254 B(  2-C , 11-N ) :   1.2873
B(  4-C ,  5-C ) :   0.9832 B(  4-C , 23-H ) :   0.9587 B(  4-C , 24-H ) :   0.9718
B(  5-C ,  6-C ) :   1.0396 B(  5-C ,  8-O ) :   0.1372 B(  5-C , 25-H ) :   1.0015
B(  6-C ,  7-O ) :   1.4094 B(  6-C ,  8-O ) :   1.6367 B(  7-O , 12-H ) :   0.2284
B( 10-C , 13-O ) :   1.8210 B( 10-C , 14-C ) :   0.8787 B( 11-N , 12-H ) :   0.7462
B( 11-N , 18-C ) :   0.9584 B( 14-C , 15-H ) :   0.9691 B( 14-C , 16-H ) :   0.9771
B( 14-C , 17-H ) :   0.9648 B( 18-C , 19-H ) :   0.9655 B( 18-C , 20-H ) :   0.9693
B( 18-C , 21-H ) :   0.9553

FINAL SINGLE POINT ENERGY      -722.312200209886

DIPOLE MOMENT
-------------
                                X             Y             Z
Electronic contribution:      2.82202       2.81744      -2.12291
Nuclear contribution   :     -5.11705      -5.17099       2.57788
                        -----------------------------------------
Total Dipole Moment    :     -2.29503      -2.35355       0.45497
                        -----------------------------------------
Magnitude (a.u.)       :      3.31864
Magnitude (Debye)      :      8.43531

Rotational constants in cm-1:     0.030761     0.014478     0.011085
Rotational constants in MHz :   922.179571   434.038479   332.329440

CHEMICAL SHIELDING SUMMARY (ppm)  --  Orbital contribution
----------------------------------------------------------

  Nucleus  Element    Isotropic     Anisotropy
  -------  -------  ------------   ------------
      0       N          115.734        102.775
      7       O           26.136        339.986
      8       O          -83.406       -357.471
      9       H           25.520          7.924
     22       H           27.741          4.279
     23       H           28.883          5.105
     24       H           28.813          5.774
     25       H           26.855          7.829

                             ****ORCA TERMINATED NORMALLY****
TOTAL RUN TIME: 0 days 0 hours 3 minutes 29 seconds 806 msec
