                         Program Version 5.0.4 -  RELEASE  -
|  1> ! M062X def2-TZVP OPT FREQ
|  2> %pal nprocs 16 end
|  3> *XYZFile -1 2 opt.xyz
|  4>
|  5>                          ****END OF INPUT****
 Total Charge           Charge          ....   -1
 Multiplicity           Mult            ....    2
 Number of Electrons    NEL             ....  107
FINAL SINGLE POINT ENERGY      -722.544825033175
FINAL SINGLE POINT ENERGY      -722.533338463082
FINAL SINGLE POINT ENERGY      -722.538893653457
FINAL SINGLE POINT ENERGY      -722.542423063470
FINAL SINGLE POINT ENERGY      -722.547423334876
FINAL SINGLE POINT ENERGY      -722.545262763591
FINAL SINGLE POINT ENERGY      -722.547509943411
FINAL SINGLE POINT ENERGY      -722.545819443708
FINAL SINGLE POINT ENERGY      -722.548176119199
FINAL SINGLE POINT ENERGY      -722.548220728373
FINAL SINGLE POINT ENERGY      -722.548236933453
FINAL SINGLE POINT ENERGY      -722.548241703512
                    ***********************HURRAY********************

CARTESIAN COORDINATES (ANGSTROEM)
---------------------------------
  N     -3.746072   -0.010507   -0.007689
  C     -2.308880   -0.170457   -0.130718
  C     -1.758918   -0.290111    1.297364
  O     -2.468035   -0.782088    2.176208
  C     -1.662518    0.919954   -1.002718
  C     -1.678133    2.292043   -0.425238
  C     -0.436898    2.962420    0.073177
  O      0.557931    2.194915    0.291889
  O     -0.484815    4.190803    0.221979
  H     -4.085822    0.026561    0.942218
  C     -4.593442   -0.346833   -0.999412
  N     -0.502466    0.106821    1.488828
  H     -0.048144    0.840844    0.865417
  O     -4.226408   -0.703247   -2.106723
  C     -6.068452   -0.227445   -0.669942
  H     -6.560897   -1.157360   -0.950100
  H     -6.257877   -0.010020    0.379880
  H     -6.489667    0.570915   -1.280977
  C      0.044457    0.018686    2.824684
  H      0.093937   -1.020618    3.154194
  H      1.042685    0.450175    2.807066
  H     -0.572218    0.564649    3.542955
  H     -2.123445   -1.135905   -0.616404
  H     -0.626534    0.631027   -1.190032
  H     -2.194318    0.889203   -1.958094
  H     -2.591967    2.872735   -0.436825

 Multiplicity           Mult            ....    2
 Number of Electrons    NEL             ....  107
 Basis Dimension        Dim             ....  506

ORBITAL ENERGIES
----------------
                 SPIN UP ORBITALS
  NO   OCC          E(Eh)            E(eV)
   0   1.0000     -19.488043      -530.2966
   1   1.0000     -19.473454      -529.8996
   2   1.0000     -19.411408      -528.2113
   3   1.0000     -19.406042      -528.0653
   4   1.0000     -14.663282      -399.0082
   5   1.0000     -14.628744      -398.0684
   6   1.0000     -10.540652      -286.8257
   7   1.0000     -10.517090      -286.1846
   8   1.0000     -10.471260      -284.9375
   9   1.0000     -10.468526      -284.8631
  10   1.0000     -10.451332      -284.3952
  11   1.0000     -10.444279      -284.2033
  12   1.0000     -10.414269      -283.3867
  13   1.0000     -10.411230      -283.3040
  14   1.0000      -1.060517       -28.8581
  15   1.0000      -1.040921       -28.3249
  16   1.0000      -0.995308       -27.0837
  17   1.0000      -0.929748       -25.2997
  18   1.0000      -0.909310       -24.7436
  19   1.0000      -0.893160       -24.3041
  20   1.0000      -0.781624       -21.2691
  21   1.0000      -0.737535       -20.0694
  22   1.0000      -0.692913       -18.8551
  23   1.0000      -0.654129       -17.7998
  24   1.0000      -0.593089       -16.1388
  25   1.0000      -0.551047       -14.9947
  26   1.0000      -0.526723       -14.3329
  27   1.0000      -0.503452       -13.6996
  28   1.0000      -0.465421       -12.6648
  29   1.0000      -0.448862       -12.2141
  30   1.0000      -0.436899       -11.8886
  31   1.0000      -0.426735       -11.6121
  32   1.0000      -0.419002       -11.4016
  33   1.0000      -0.405134       -11.0242
  34   1.0000      -0.392585       -10.6828
  35   1.0000      -0.382896       -10.4191
  36   1.0000      -0.377711       -10.2780
  37   1.0000      -0.368230       -10.0200
  38   1.0000      -0.359188        -9.7740
  39   1.0000      -0.341457        -9.2915
  40   1.0000      -0.338957        -9.2235
  41   1.0000      -0.334046        -9.0898
  42   1.0000      -0.323232        -8.7956
  43   1.0000      -0.310302        -8.4437
  44   1.0000      -0.304718        -8.2918
  45   1.0000      -0.291640        -7.9359
  46   1.0000      -0.231798        -6.3075
  47   1.0000      -0.224435        -6.1072
  48   1.0000      -0.216006        -5.8778
  49   1.0000      -0.197169        -5.3652
  50   1.0000      -0.171696        -4.6721
  51   1.0000      -0.170487        -4.6392
  52   1.0000      -0.157767        -4.2931
  53   1.0000      -0.125424        -3.4130
  54   0.0000       0.154513         4.2045
  55   0.0000       0.161092         4.3835
  56   0.0000       0.178260         4.8507
  57   0.0000       0.193808         5.2738
  58   0.0000       0.205301         5.5865

                 SPIN DOWN ORBITALS
  NO   OCC          E(Eh)            E(eV)
   0   1.0000     -19.488015      -530.2958
   1   1.0000     -19.473442      -529.8993
   2   1.0000     -19.410875      -528.1968
   3   1.0000     -19.403903      -528.0070
   4   1.0000     -14.663333      -399.0096
   5   1.0000     -14.628727      -398.0679
   6   1.0000     -10.540652      -286.8257
   7   1.0000     -10.517120      -286.1854
   8   1.0000     -10.470318      -284.9118
   9   1.0000     -10.469298      -284.8841
  10   1.0000     -10.451332      -284.3952
  11   1.0000     -10.444281      -284.2033
  12   1.0000     -10.414920      -283.4044
  13   1.0000     -10.405262      -283.1416
  14   1.0000      -1.060453       -28.8564
  15   1.0000      -1.040857       -28.3232
  16   1.0000      -0.991817       -26.9887
  17   1.0000      -0.929454       -25.2917
  18   1.0000      -0.906821       -24.6759
  19   1.0000      -0.891328       -24.2543
  20   1.0000      -0.777015       -21.1437
  21   1.0000      -0.733046       -19.9472
  22   1.0000      -0.685307       -18.6482
  23   1.0000      -0.646948       -17.6043
  24   1.0000      -0.582033       -15.8379
  25   1.0000      -0.547956       -14.9106
  26   1.0000      -0.525100       -14.2887
  27   1.0000      -0.502899       -13.6846
  28   1.0000      -0.463065       -12.6006
  29   1.0000      -0.447685       -12.1821
  30   1.0000      -0.431853       -11.7513
  31   1.0000      -0.424245       -11.5443
  32   1.0000      -0.416393       -11.3306
  33   1.0000      -0.404023       -10.9940
  34   1.0000      -0.390622       -10.6294
  35   1.0000      -0.382595       -10.4109
  36   1.0000      -0.373351       -10.1594
  37   1.0000      -0.364540        -9.9196
  38   1.0000      -0.354019        -9.6333
  39   1.0000      -0.337859        -9.1936
  40   1.0000      -0.337242        -9.1768
  41   1.0000      -0.327673        -8.9164
  42   1.0000      -0.321341        -8.7441
  43   1.0000      -0.305496        -8.3130
  44   1.0000      -0.301045        -8.1918
  45   1.0000      -0.287475        -7.8226
  46   1.0000      -0.231335        -6.2949
  47   1.0000      -0.221696        -6.0327
  48   1.0000      -0.215018        -5.8509
  49   1.0000      -0.196080        -5.3356
  50   1.0000      -0.166683        -4.5357
  51   1.0000      -0.156261        -4.2521
  52   1.0000      -0.150575        -4.0974
  53   0.0000       0.100312         2.7296
  54   0.0000       0.154856         4.2138
  55   0.0000       0.161271         4.3884
  56   0.0000       0.179418         4.8822
  57   0.0000       0.192585         5.2405

MULLIKEN ATOMIC CHARGES AND SPIN POPULATIONS
--------------------------------------------
   0 N :   -0.358993   -0.014176
   1 C :    0.014085    0.108237
   2 C :    0.300812   -0.035848
   3 O :   -0.477911    0.001776
   4 C :   -0.324578   -0.097149
   5 C :   -0.313786    0.999228
   6 C :    0.359150   -0.101607
   7 O :   -0.577302    0.029112
   8 O :   -0.486176    0.108864
   9 H :    0.248663   -0.000356
  10 C :    0.388921   -0.001011
  11 N :   -0.347826    0.006538
  12 H :    0.322253   -0.000052
  13 O :   -0.432966   -0.000023
  14 C :   -0.460834   -0.000088
  15 H :    0.141606    0.000046
  16 H :    0.122599    0.000114
  17 H :    0.146485   -0.000020
  18 C :   -0.310452   -0.002678
  19 H :    0.122905    0.000142
  20 H :    0.145007    0.000021
  21 H :    0.133601    0.000950
  22 H :    0.143673    0.004901
  23 H :    0.194036    0.004248
  24 H :    0.171567    0.025412
  25 H :    0.135462   -0.036583
Sum of atomic charges         :   -1.0000000

LOEWDIN ATOMIC CHARGES AND SPIN POPULATIONS
-------------------------------------------
   0 N :    0.150253    0.000863
   1 C :   -0.235068    0.036812
   2 C :   -0.457637    0.004330
   3 O :   -0.003168    0.000337
   4 C :   -0.261856    0.060055
   5 C :   -0.097001    0.718724
   6 C :   -0.682204    0.040717
   7 O :   -0.111803    0.023767
   8 O :   -0.044785    0.091454
   9 H :    0.192572    0.000451
  10 C :   -0.490247    0.000191
  11 N :    0.102601    0.002041
  12 H :    0.190531    0.000414
  13 O :    0.033996    0.000570
  14 C :   -0.273055    0.000012
  15 H :    0.129765    0.000015
  16 H :    0.118543    0.000015
  17 H :    0.133158    0.000004
  18 C :   -0.320885    0.000207
  19 H :    0.109482    0.000087
  20 H :    0.117494   -0.000012
  21 H :    0.111732    0.000151
  22 H :    0.161344    0.003307
  23 H :    0.152749    0.002299
  24 H :    0.149772    0.014690
  25 H :    0.123717   -0.001500

  Mayer bond orders larger than 0.100000
B(  0-N ,  1-C ) :   0.8532 B(  0-N ,  9-H ) :   0.8850 B(  0-N , 10-C ) :   1.2485
B(  1-C ,  2-C ) :   0.9612 B(  1-C ,  4-C ) :   0.9103 B(  1-C , 22-H ) :   0.9710
B(  2-C ,  3-O ) :   1.8703 B(  2-C , 11-N ) :   1.3352 B(  4-C ,  5-C ) :   0.8133
B(  4-C , 23-H ) :   0.9816 B(  4-C , 24-H ) :   0.9551 B(  5-C ,  6-C ) :   1.0365
B(  5-C , 25-H ) :   0.9700 B(  6-C ,  7-O ) :   1.5496 B(  6-C ,  8-O ) :   1.8713
B(  7-O , 12-H ) :   0.2204 B( 10-C , 13-O ) :   1.9241 B( 10-C , 14-C ) :   0.9070
B( 11-N , 12-H ) :   0.7251 B( 11-N , 18-C ) :   0.9609 B( 14-C , 15-H ) :   0.9731
B( 14-C , 16-H ) :   0.9832 B( 14-C , 17-H ) :   0.9617 B( 18-C , 19-H ) :   0.9727
B( 18-C , 20-H ) :   0.9708 B( 18-C , 21-H ) :   0.9737

FINAL SINGLE POINT ENERGY      -722.548242983231

DIPOLE MOMENT
-------------
                                X             Y             Z
Electronic contribution:      2.68189       2.52546      -2.00469
Nuclear contribution   :     -5.01013      -4.84211       2.29149
                        -----------------------------------------
Total Dipole Moment    :     -2.32824      -2.31665       0.28680
                        -----------------------------------------
Magnitude (a.u.)       :      3.29694
Magnitude (Debye)      :      8.38017

VIBRATIONAL FREQUENCIES
-----------------------

Scaling factor for frequencies =  1.000000000  (already applied!)

   0:         0.00 cm**-1
   1:         0.00 cm**-1
   2:         0.00 cm**-1
   3:         0.00 cm**-1
   4:         0.00 cm**-1
   5:         0.00 cm**-1
   6:        -5.45 cm**-1 ***imaginary mode***
   7:        43.19 cm**-1
   8:        65.31 cm**-1
   9:        78.36 cm**-1
  10:        90.92 cm**-1
  11:       103.91 cm**-1
  12:       135.17 cm**-1
  13:       152.58 cm**-1
  14:       172.55 cm**-1
  15:       196.93 cm**-1
  16:       208.37 cm**-1
  17:       252.41 cm**-1
  18:       273.28 cm**-1
  19:       306.71 cm**-1
  20:       353.56 cm**-1
  21:       388.21 cm**-1
  22:       450.55 cm**-1
  23:       492.75 cm**-1
  24:       518.94 cm**-1
  25:       556.22 cm**-1
  26:       578.58 cm**-1
  27:       623.81 cm**-1
  28:       655.82 cm**-1
  29:       663.88 cm**-1
  30:       692.47 cm**-1
  31:       770.20 cm**-1
  32:       808.23 cm**-1
  33:       852.86 cm**-1
  34:       900.99 cm**-1
  35:       934.82 cm**-1
  36:       997.37 cm**-1
  37:      1018.04 cm**-1
  38:      1033.51 cm**-1
  39:      1035.52 cm**-1
  40:      1061.04 cm**-1
  41:      1101.14 cm**-1
  42:      1144.37 cm**-1
  43:      1150.73 cm**-1
  44:      1162.95 cm**-1
  45:      1190.81 cm**-1
  46:      1233.50 cm**-1
  47:      1255.88 cm**-1
  48:      1300.09 cm**-1
  49:      1324.44 cm**-1
  50:      1344.22 cm**-1
  51:      1377.29 cm**-1
  52:      1396.96 cm**-1
  53:      1402.19 cm**-1
  54:      1418.54 cm**-1
  55:      1454.70 cm**-1
  56:      1475.60 cm**-1
  57:      1486.40 cm**-1
  58:      1487.44 cm**-1
  59:      1490.09 cm**-1
  60:      1505.62 cm**-1
  61:      1554.47 cm**-1
  62:      1656.93 cm**-1
  63:      1691.25 cm**-1
  64:      1732.67 cm**-1
  65:      1774.20 cm**-1
  66:      2582.63 cm**-1
  67:      3046.99 cm**-1
  68:      3059.26 cm**-1
  69:      3068.30 cm**-1
  70:      3084.02 cm**-1
  71:      3117.42 cm**-1
  72:      3125.16 cm**-1
  73:      3165.15 cm**-1
  74:      3174.76 cm**-1
  75:      3176.04 cm**-1
  76:      3205.50 cm**-1
  77:      3616.05 cm**-1

IR SPECTRUM
-----------

 Mode   freq       eps      Int      T**2         TX        TY        TZ
       cm**-1   L/(mol*cm) km/mol    a.u.
----------------------------------------------------------------------------
  7:     43.19   0.000389    1.97  0.002812  (-0.049067 -0.007843 -0.018509)
  8:     65.31   0.000574    2.90  0.002743  (-0.030487 -0.008675  0.041692)
  9:     78.36   0.001028    5.20  0.004095  (-0.007106 -0.053193  0.034860)
 10:     90.92   0.000681    3.44  0.002337  (-0.006582 -0.047877 -0.001173)
 11:    103.91   0.001437    7.26  0.004315  (-0.050691  0.036963  0.019480)
 12:    135.17   0.000456    2.30  0.001052  (-0.020540 -0.024928 -0.002953)
 13:    152.58   0.000413    2.09  0.000845  (-0.000638  0.016466 -0.023951)
 14:    172.55   0.005668   28.64  0.010251  (-0.019218  0.062120 -0.077604)
 15:    196.93   0.005479   27.69  0.008682  ( 0.015949  0.087281 -0.028451)
 16:    208.37   0.003725   18.82  0.005578  (-0.051983 -0.049232  0.021269)
 17:    252.41   0.006222   31.44  0.007692  ( 0.046677  0.072946 -0.013867)
 18:    273.28   0.001913    9.67  0.002185  (-0.026824  0.015738 -0.034896)
 19:    306.71   0.001782    9.01  0.001813  ( 0.006277 -0.040840  0.010303)
 20:    353.56   0.003023   15.28  0.002669  (-0.008862  0.034262 -0.037632)
 21:    388.21   0.002992   15.12  0.002405  (-0.044279  0.006426 -0.020088)
 22:    450.55   0.001832    9.26  0.001269  (-0.011158 -0.033799  0.001397)
 23:    492.75   0.001732    8.75  0.001097  ( 0.027102  0.006936 -0.017732)
 24:    518.94   0.002023   10.22  0.001216  (-0.030584 -0.016767 -0.000117)
 25:    556.22   0.009686   48.95  0.005435  ( 0.017991 -0.070866 -0.009426)
 26:    578.58   0.008061   40.74  0.004348  ( 0.022456  0.055370  0.027889)
 27:    623.81   0.001151    5.82  0.000576  ( 0.005535 -0.023321 -0.001227)
 28:    655.82   0.000174    0.88  0.000083  ( 0.004938  0.001776 -0.007442)
 29:    663.88   0.002315   11.70  0.001088  ( 0.020395  0.022251 -0.013313)
 30:    692.47   0.001082    5.47  0.000488  ( 0.020625  0.007551  0.002327)
 31:    770.20   0.002731   13.80  0.001107  (-0.000607  0.008796 -0.032078)
 32:    808.23   0.005299   26.78  0.002046  (-0.007908 -0.032074  0.030896)
 33:    852.86   0.015345   77.55  0.005615  (-0.033171 -0.065871 -0.013247)
 34:    900.99   0.005742   29.02  0.001989  ( 0.044098 -0.006555  0.001060)
 35:    934.82   0.000852    4.31  0.000284  (-0.009006 -0.013670 -0.004057)
 36:    997.37   0.002696   13.63  0.000844  ( 0.018931 -0.015872  0.015274)
 37:   1018.04   0.001550    7.83  0.000475  ( 0.004243 -0.020483 -0.006119)
 38:   1033.51   0.025495  128.84  0.007698  (-0.022730  0.083814 -0.012523)
 39:   1035.52   0.008268   41.78  0.002492  ( 0.038116 -0.029939  0.011939)
 40:   1061.04   0.001597    8.07  0.000470  ( 0.000877  0.021515 -0.002441)
 41:   1101.14   0.000350    1.77  0.000099  ( 0.005898  0.007886 -0.001507)
 42:   1144.37   0.000804    4.06  0.000219  ( 0.004421  0.012380 -0.006815)
 43:   1150.73   0.000690    3.49  0.000187  (-0.010604 -0.007337  0.004566)
 44:   1162.95   0.000866    4.38  0.000232  (-0.013968  0.002995 -0.005316)
 45:   1190.81   0.002536   12.82  0.000665  (-0.020714 -0.011900  0.009691)
 46:   1233.50   0.003705   18.72  0.000937  ( 0.025613  0.016715 -0.001348)
 47:   1255.88   0.000947    4.79  0.000235  (-0.011831  0.000784 -0.009739)
 48:   1300.09   0.003301   16.68  0.000792  ( 0.026165  0.009875  0.003193)
 49:   1324.44   0.020887  105.55  0.004921  ( 0.061202  0.020068  0.027802)
 50:   1344.22   0.003402   17.19  0.000790  ( 0.009500  0.003038  0.026275)
 51:   1377.29   0.016612   83.95  0.003764  (-0.049804  0.019619 -0.029976)
 52:   1396.96   0.004524   22.86  0.001011  ( 0.030256 -0.006156 -0.007561)
 53:   1402.19   0.014121   71.36  0.003143  ( 0.041123 -0.013086  0.035783)
 54:   1418.54   0.012235   61.83  0.002692  ( 0.039505  0.007072  0.032878)
 55:   1454.70   0.003497   17.67  0.000750  ( 0.002065 -0.008738  0.025875)
 56:   1475.60   0.001667    8.43  0.000353  (-0.004675 -0.017071 -0.006274)
 57:   1486.40   0.012365   62.49  0.002596  (-0.016361 -0.006315 -0.047837)
 58:   1487.44   0.002044   10.33  0.000429  (-0.016196  0.012375  0.003651)
 59:   1490.09   0.001162    5.87  0.000243  ( 0.002880 -0.004913  0.014526)
 60:   1505.62   0.000905    4.57  0.000188  ( 0.002425  0.013434 -0.001085)
 61:   1554.47   0.096281  486.56  0.019329  (-0.124369 -0.034994 -0.051346)
 62:   1656.93   0.095164  480.92  0.017923  ( 0.054708  0.122056  0.005698)
 63:   1691.25   0.083372  421.33  0.015383  ( 0.046688 -0.107467  0.040678)
 64:   1732.67   0.058634  296.31  0.010560  (-0.088235 -0.022170  0.047785)
 65:   1774.20   0.059401  300.19  0.010448  (-0.009434 -0.037696 -0.094541)
 66:   2582.63   0.318723  1610.70  0.038512  (-0.070410 -0.155454  0.096893)
 67:   3046.99   0.003894   19.68  0.000399  ( 0.009681 -0.015558  0.007937)
 68:   3059.26   0.009232   46.66  0.000942  ( 0.014896  0.001332  0.026797)
 69:   3068.30   0.002326   11.75  0.000237  ( 0.001499 -0.008823 -0.012509)
 70:   3084.02   0.001515    7.65  0.000153  (-0.011965  0.000444  0.003148)
 71:   3117.42   0.005323   26.90  0.000533  ( 0.011518 -0.019925 -0.001777)
 72:   3125.16   0.000939    4.74  0.000094  (-0.005071  0.008150 -0.001258)
 73:   3165.15   0.001136    5.74  0.000112  ( 0.002209  0.007124 -0.007508)
 74:   3174.76   0.001838    9.29  0.000181  (-0.011484 -0.006537  0.002452)
 75:   3176.04   0.002294   11.59  0.000225  (-0.000805 -0.007256 -0.013118)
 76:   3205.50   0.002874   14.52  0.000280  (-0.013778  0.009328 -0.001715)
 77:   3616.05   0.019096   96.50  0.001648  ( 0.008714  0.001417  0.039624)

--------------------------
THERMOCHEMISTRY AT 298.15K
--------------------------

Temperature         ... 298.15 K
Pressure            ... 1.00 atm
Total Mass          ... 200.19 AMU

Throughout the following assumptions are being made:
  (1) The electronic state is orbitally nondegenerate
      but the spin degeneracy is treated
  (2) There are no thermally accessible electronically excited states
  (3) Hindered rotations indicated by low frequency modes are not
      treated as such but are treated as vibrations and this may
      cause some error
  (4) All equations used are the standard statistical mechanics
      equations for an ideal gas
  (5) All vibrations are strictly harmonic

freq.      43.19  E(vib)   ...       0.53
freq.      65.31  E(vib)   ...       0.50
freq.      78.36  E(vib)   ...       0.49
freq.      90.92  E(vib)   ...       0.47
freq.     103.91  E(vib)   ...       0.46
freq.     135.17  E(vib)   ...       0.42
freq.     152.58  E(vib)   ...       0.40
freq.     172.55  E(vib)   ...       0.38
freq.     196.93  E(vib)   ...       0.35
freq.     208.37  E(vib)   ...       0.34
freq.     252.41  E(vib)   ...       0.30
freq.     273.28  E(vib)   ...       0.29
freq.     306.71  E(vib)   ...       0.26
freq.     353.56  E(vib)   ...       0.22
freq.     388.21  E(vib)   ...       0.20
freq.     450.55  E(vib)   ...       0.17
freq.     492.75  E(vib)   ...       0.14
freq.     518.94  E(vib)   ...       0.13
freq.     556.22  E(vib)   ...       0.12
freq.     578.58  E(vib)   ...       0.11
freq.     623.81  E(vib)   ...       0.09
freq.     655.82  E(vib)   ...       0.08
freq.     663.88  E(vib)   ...       0.08
freq.     692.47  E(vib)   ...       0.07
freq.     770.20  E(vib)   ...       0.05
freq.     808.23  E(vib)   ...       0.05
freq.     852.86  E(vib)   ...       0.04
freq.     900.99  E(vib)   ...       0.03
freq.     934.82  E(vib)   ...       0.03
freq.     997.37  E(vib)   ...       0.02
freq.    1018.04  E(vib)   ...       0.02
freq.    1033.51  E(vib)   ...       0.02
freq.    1035.52  E(vib)   ...       0.02
freq.    1061.04  E(vib)   ...       0.02
freq.    1101.14  E(vib)   ...       0.02
freq.    1144.37  E(vib)   ...       0.01
freq.    1150.73  E(vib)   ...       0.01
freq.    1162.95  E(vib)   ...       0.01
freq.    1190.81  E(vib)   ...       0.01
freq.    1233.50  E(vib)   ...       0.01
freq.    1255.88  E(vib)   ...       0.01
freq.    1300.09  E(vib)   ...       0.01
freq.    1324.44  E(vib)   ...       0.01
freq.    1344.22  E(vib)   ...       0.01
freq.    1377.29  E(vib)   ...       0.01
freq.    1396.96  E(vib)   ...       0.00
freq.    1402.19  E(vib)   ...       0.00
freq.    1418.54  E(vib)   ...       0.00
freq.    1454.70  E(vib)   ...       0.00
freq.    1475.60  E(vib)   ...       0.00
freq.    1486.40  E(vib)   ...       0.00
freq.    1487.44  E(vib)   ...       0.00
freq.    1490.09  E(vib)   ...       0.00
freq.    1505.62  E(vib)   ...       0.00
freq.    1554.47  E(vib)   ...       0.00
freq.    1656.93  E(vib)   ...       0.00
freq.    1691.25  E(vib)   ...       0.00
freq.    1732.67  E(vib)   ...       0.00
freq.    1774.20  E(vib)   ...       0.00
freq.    2582.63  E(vib)   ...       0.00
freq.    3046.99  E(vib)   ...       0.00
freq.    3059.26  E(vib)   ...       0.00
freq.    3068.30  E(vib)   ...       0.00
freq.    3084.02  E(vib)   ...       0.00
freq.    3117.42  E(vib)   ...       0.00
freq.    3125.16  E(vib)   ...       0.00
freq.    3165.15  E(vib)   ...       0.00
freq.    3174.76  E(vib)   ...       0.00
freq.    3176.04  E(vib)   ...       0.00
freq.    3205.50  E(vib)   ...       0.00
freq.    3616.05  E(vib)   ...       0.00

------------
INNER ENERGY
------------

The inner energy is: U= E(el) + E(ZPE) + E(vib) + E(rot) + E(trans)
    E(el)   - is the total energy from the electronic structure calculation
              = E(kin-el) + E(nuc-el) + E(el-el) + E(nuc-nuc)
    E(ZPE)  - the the zero temperature vibrational energy from the frequency calculation
    E(vib)  - the the finite temperature correction to E(ZPE) due to population
              of excited vibrational states
    E(rot)  - is the rotational thermal energy
    E(trans)- is the translational thermal energy

Summary of contributions to the inner energy U:
Electronic energy                ...   -722.54824298 Eh
Zero point energy                ...      0.20503689 Eh     128.66 kcal/mol
Thermal vibrational correction   ...      0.01127734 Eh       7.08 kcal/mol
Thermal rotational correction    ...      0.00141627 Eh       0.89 kcal/mol
Thermal translational correction ...      0.00141627 Eh       0.89 kcal/mol
-----------------------------------------------------------------------
Total thermal energy                   -722.32909621 Eh

Summary of corrections to the electronic energy:
(perhaps to be used in another calculation)
Total thermal correction                  0.01410989 Eh       8.85 kcal/mol
Non-thermal (ZPE) correction              0.20503689 Eh     128.66 kcal/mol
-----------------------------------------------------------------------
Total correction                          0.21914678 Eh     137.52 kcal/mol

--------
ENTHALPY
--------

The enthalpy is H = U + kB*T
                kB is Boltzmann's constant
Total free energy                 ...   -722.32909621 Eh
Thermal Enthalpy correction       ...      0.00094421 Eh       0.59 kcal/mol
-----------------------------------------------------------------------
Total Enthalpy                    ...   -722.32815200 Eh

Note: Only C1 symmetry has been detected, increase convergence thresholds
      if your molecule has a higher symmetry. Symmetry factor of 1.0 is
      used for the rotational entropy correction.

Note: Rotational entropy computed according to Herzberg
Infrared and Raman Spectra, Chapter V,1, Van Nostrand Reinhold, 1945
Point Group:  C1, Symmetry Number:   1
Rotational constants in cm-1:     0.031463     0.014859     0.011447

Vibrational entropy computed according to the QRRHO of S. Grimme
Chem.Eur.J. 2012 18 9955

-------
ENTROPY
-------

The entropy contributions are T*S = T*(S(el)+S(vib)+S(rot)+S(trans))
     S(el)   - electronic entropy
     S(vib)  - vibrational entropy
     S(rot)  - rotational entropy
     S(trans)- translational entropy
The entropies will be listed as multiplied by the temperature to get
units of energy

Electronic entropy                ...      0.00065446 Eh      0.41 kcal/mol
Vibrational entropy               ...      0.02001645 Eh     12.56 kcal/mol

                             ****ORCA TERMINATED NORMALLY****
TOTAL RUN TIME: 0 days 0 hours 24 minutes 14 seconds 188 msec
