                         Program Version 5.0.4 -  RELEASE  -
|  1> ! B3LYP EPR-II OPT
|  2> %pal nprocs 16 end
|  3> *XYZFile -1 2 model.xyz
|  4>
|  5>                          ****END OF INPUT****
 Total Charge           Charge          ....   -1
 Multiplicity           Mult            ....    2
 Number of Electrons    NEL             ....  107
FINAL SINGLE POINT ENERGY      -722.310275990293
FINAL SINGLE POINT ENERGY      -722.307642852829
FINAL SINGLE POINT ENERGY      -722.301445286028
FINAL SINGLE POINT ENERGY      -722.310991825068
FINAL SINGLE POINT ENERGY      -722.307466605333
FINAL SINGLE POINT ENERGY      -722.312519949092
FINAL SINGLE POINT ENERGY      -722.311996662782
FINAL SINGLE POINT ENERGY      -722.312607492915
FINAL SINGLE POINT ENERGY      -722.312630210148
FINAL SINGLE POINT ENERGY      -722.312646935424
FINAL SINGLE POINT ENERGY      -722.312650748567
FINAL SINGLE POINT ENERGY      -722.312652900850
                    ***********************HURRAY********************

CARTESIAN COORDINATES (ANGSTROEM)
---------------------------------
  N     -3.762577    0.008430   -0.032225
  C     -2.310673   -0.133261   -0.149045
  C     -1.779626   -0.268867    1.303003
  O     -2.529314   -0.755666    2.173711
  C     -1.654350    0.969592   -1.030140
  C     -1.632722    2.359820   -0.461378
  C     -0.369367    2.990775    0.043130
  O      0.595053    2.178996    0.320618
  O     -0.353380    4.243838    0.129615
  H     -4.083699   -0.038888    0.928370
  C     -4.625713   -0.351702   -1.020536
  N     -0.501010    0.090799    1.519825
  H     -0.042319    0.840932    0.914445
  O     -4.274935   -0.673350   -2.160009
  C     -6.109393   -0.293769   -0.644317
  H     -6.574800   -1.244146   -0.919090
  H     -6.281802   -0.092506    0.416657
  H     -6.583626    0.494600   -1.236874
  C      0.036962   -0.012791    2.871638
  H      0.076052   -1.057381    3.198987
  H      1.045602    0.405047    2.863466
  H     -0.574685    0.540091    3.594849
  H     -2.102970   -1.096466   -0.639657
  H     -0.622527    0.659952   -1.224749
  H     -2.197472    0.942856   -1.983321
  H     -2.533627    2.970226   -0.485986

 Multiplicity           Mult            ....    2
 Number of Electrons    NEL             ....  107
 Basis Dimension        Dim             ....  322

ORBITAL ENERGIES
----------------
                 SPIN UP ORBITALS
  NO   OCC          E(Eh)            E(eV)
   0   1.0000     -19.004627      -517.1422
   1   1.0000     -18.992392      -516.8093
   2   1.0000     -18.929018      -515.0848
   3   1.0000     -18.927869      -515.0535
   4   1.0000     -14.245058      -387.6277
   5   1.0000     -14.214838      -386.8054
   6   1.0000     -10.190819      -277.3063
   7   1.0000     -10.169497      -276.7261
   8   1.0000     -10.121940      -275.4320
   9   1.0000     -10.121421      -275.4179
  10   1.0000     -10.100120      -274.8382
  11   1.0000     -10.093551      -274.6595
  12   1.0000     -10.064521      -273.8695
  13   1.0000     -10.059934      -273.7447
  14   1.0000      -0.925134       -25.1742
  15   1.0000      -0.908157       -24.7122
  16   1.0000      -0.859538       -23.3892
  17   1.0000      -0.810994       -22.0683
  18   1.0000      -0.787700       -21.4344
  19   1.0000      -0.771359       -20.9897
  20   1.0000      -0.672589       -18.3021
  21   1.0000      -0.634431       -17.2638
  22   1.0000      -0.593669       -16.1546
  23   1.0000      -0.559586       -15.2271
  24   1.0000      -0.500254       -13.6126
  25   1.0000      -0.461434       -12.5562
  26   1.0000      -0.437925       -11.9165
  27   1.0000      -0.416178       -11.3248
  28   1.0000      -0.377831       -10.2813
  29   1.0000      -0.366832        -9.9820
  30   1.0000      -0.351721        -9.5708
  31   1.0000      -0.345065        -9.3897
  32   1.0000      -0.334951        -9.1145
  33   1.0000      -0.325480        -8.8568
  34   1.0000      -0.316299        -8.6069
  35   1.0000      -0.305176        -8.3043
  36   1.0000      -0.296926        -8.0798
  37   1.0000      -0.290144        -7.8952
  38   1.0000      -0.283621        -7.7177
  39   1.0000      -0.269156        -7.3241
  40   1.0000      -0.261532        -7.1167
  41   1.0000      -0.251558        -6.8452
  42   1.0000      -0.242574        -6.6008
  43   1.0000      -0.233184        -6.3453
  44   1.0000      -0.228708        -6.2235
  45   1.0000      -0.218428        -5.9437
  46   1.0000      -0.156413        -4.2562
  47   1.0000      -0.149205        -4.0601
  48   1.0000      -0.142763        -3.8848
  49   1.0000      -0.129760        -3.5310
  50   1.0000      -0.098332        -2.6757
  51   1.0000      -0.092817        -2.5257
  52   1.0000      -0.079325        -2.1586
  53   1.0000      -0.063512        -1.7283
  54   0.0000       0.102378         2.7859
  55   0.0000       0.119447         3.2503
  56   0.0000       0.128803         3.5049
  57   0.0000       0.136880         3.7247
  58   0.0000       0.154012         4.1909

                 SPIN DOWN ORBITALS
  NO   OCC          E(Eh)            E(eV)
   0   1.0000     -19.004592      -517.1412
   1   1.0000     -18.992374      -516.8088
   2   1.0000     -18.928105      -515.0599
   3   1.0000     -18.924483      -514.9614
   4   1.0000     -14.245107      -387.6291
   5   1.0000     -14.214811      -386.8047
   6   1.0000     -10.190819      -277.3063
   7   1.0000     -10.169533      -276.7271
   8   1.0000     -10.122612      -275.4503
   9   1.0000     -10.120606      -275.3957
  10   1.0000     -10.100121      -274.8383
  11   1.0000     -10.093553      -274.6595
  12   1.0000     -10.065344      -273.8919
  13   1.0000     -10.047369      -273.4028
  14   1.0000      -0.925065       -25.1723
  15   1.0000      -0.908091       -24.7104
  16   1.0000      -0.855772       -23.2867
  17   1.0000      -0.810727       -22.0610
  18   1.0000      -0.786524       -21.4024
  19   1.0000      -0.767648       -20.8888
  20   1.0000      -0.668956       -18.2032
  21   1.0000      -0.630683       -17.1618
  22   1.0000      -0.587702       -15.9922
  23   1.0000      -0.552942       -15.0463
  24   1.0000      -0.490440       -13.3456
  25   1.0000      -0.458820       -12.4851
  26   1.0000      -0.436311       -11.8726
  27   1.0000      -0.415781       -11.3140
  28   1.0000      -0.376208       -10.2371
  29   1.0000      -0.366224        -9.9655
  30   1.0000      -0.348263        -9.4767
  31   1.0000      -0.342863        -9.3298
  32   1.0000      -0.332942        -9.0598
  33   1.0000      -0.324789        -8.8380
  34   1.0000      -0.314604        -8.5608
  35   1.0000      -0.304702        -8.2914
  36   1.0000      -0.293818        -7.9952
  37   1.0000      -0.288220        -7.8429
  38   1.0000      -0.279807        -7.6139
  39   1.0000      -0.267868        -7.2891
  40   1.0000      -0.259828        -7.0703
  41   1.0000      -0.247144        -6.7251
  42   1.0000      -0.240614        -6.5474
  43   1.0000      -0.230539        -6.2733
  44   1.0000      -0.222045        -6.0421
  45   1.0000      -0.214357        -5.8330
  46   1.0000      -0.154734        -4.2105
  47   1.0000      -0.148931        -4.0526
  48   1.0000      -0.141921        -3.8619
  49   1.0000      -0.129314        -3.5188
  50   1.0000      -0.088693        -2.4135
  51   1.0000      -0.084737        -2.3058
  52   1.0000      -0.070381        -1.9152
  53   0.0000       0.060612         1.6493
  54   0.0000       0.102668         2.7937
  55   0.0000       0.119970         3.2645
  56   0.0000       0.129063         3.5120
  57   0.0000       0.137242         3.7345

MULLIKEN ATOMIC CHARGES AND SPIN POPULATIONS
--------------------------------------------
   0 N :   -0.095350   -0.002024
   1 C :   -0.050169    0.048207
   2 C :    0.027867    0.006160
   3 O :   -0.405008   -0.000877
   4 C :   -0.341138   -0.050455
   5 C :   -0.142045    0.931963
   6 C :    0.102585   -0.074092
   7 O :   -0.450302    0.034936
   8 O :   -0.424860    0.122979
   9 H :    0.237190    0.000387
  10 C :    0.178359   -0.001036
  11 N :   -0.061289   -0.002340
  12 H :    0.257685   -0.001672
  13 O :   -0.347957    0.001102
  14 C :   -0.574261    0.000057
  15 H :    0.172043    0.000024
  16 H :    0.147830    0.000018
  17 H :    0.175901    0.000018
  18 C :   -0.471024   -0.000506
  19 H :    0.150878    0.000084
  20 H :    0.156904   -0.000001
  21 H :    0.161459    0.000276
  22 H :    0.158217    0.004712
  23 H :    0.167103    0.004545
  24 H :    0.147142    0.020923
  25 H :    0.122238   -0.043389
Sum of atomic charges         :   -1.0000000

LOEWDIN ATOMIC CHARGES AND SPIN POPULATIONS
-------------------------------------------
   0 N :    0.066472    0.000074
   1 C :   -0.039738    0.047450
   2 C :   -0.105995    0.002750
   3 O :   -0.249572    0.000528
   4 C :   -0.076015    0.012075
   5 C :   -0.021907    0.761586
   6 C :   -0.214827   -0.012947
   7 O :   -0.324798    0.034585
   8 O :   -0.275504    0.120917
   9 H :    0.088574    0.000752
  10 C :   -0.112033    0.000471
  11 N :    0.032212    0.001427
  12 H :    0.081254    0.000122
  13 O :   -0.214601    0.001089
  14 C :   -0.056028    0.000033
  15 H :    0.046175   -0.000004
  16 H :    0.031326    0.000013
  17 H :    0.048528    0.000046
  18 C :   -0.014417   -0.000002
  19 H :    0.027417    0.000118
  20 H :    0.034295   -0.000004
  21 H :    0.032092    0.000072
  22 H :    0.067036    0.003091
  23 H :    0.057159    0.003000
  24 H :    0.056113    0.016750
  25 H :    0.036781    0.006009

  Mayer bond orders larger than 0.100000
B(  0-N ,  1-C ) :   1.0058 B(  0-N ,  9-H ) :   0.8963 B(  0-N , 10-C ) :   1.2328
B(  1-C ,  2-C ) :   0.9128 B(  1-C ,  4-C ) :   0.9315 B(  1-C , 13-O ) :   0.1107
B(  1-C , 22-H ) :   0.9770 B(  2-C ,  3-O ) :   1.7250 B(  2-C , 11-N ) :   1.2871
B(  4-C ,  5-C ) :   0.9833 B(  4-C , 23-H ) :   0.9588 B(  4-C , 24-H ) :   0.9719
B(  5-C ,  6-C ) :   1.0395 B(  5-C ,  8-O ) :   0.1370 B(  5-C , 25-H ) :   1.0017
B(  6-C ,  7-O ) :   1.4094 B(  6-C ,  8-O ) :   1.6359 B(  7-O , 12-H ) :   0.2287
B( 10-C , 13-O ) :   1.8209 B( 10-C , 14-C ) :   0.8790 B( 11-N , 12-H ) :   0.7461
B( 11-N , 18-C ) :   0.9590 B( 14-C , 15-H ) :   0.9693 B( 14-C , 16-H ) :   0.9770
B( 14-C , 17-H ) :   0.9649 B( 18-C , 19-H ) :   0.9655 B( 18-C , 20-H ) :   0.9693
B( 18-C , 21-H ) :   0.9554

FINAL SINGLE POINT ENERGY      -722.312654368007

DIPOLE MOMENT
-------------
                                X             Y             Z
Electronic contribution:      2.82217       2.81664      -2.12334
Nuclear contribution   :     -5.11705      -5.17099       2.57788
                        -----------------------------------------
Total Dipole Moment    :     -2.29488      -2.35435       0.45454
                        -----------------------------------------
Magnitude (a.u.)       :      3.31904
Magnitude (Debye)      :      8.43633

Rotational constants in cm-1:     0.030761     0.014478     0.011085
Rotational constants in MHz :   922.179571   434.038479   332.329440

                             ****ORCA TERMINATED NORMALLY****
TOTAL RUN TIME: 0 days 0 hours 7 minutes 21 seconds 35 msec
