                         Program Version 5.0.4 -  RELEASE  -
|  1> ! B3LYP EPR-II AUTOAUX
|  2> %pal nprocs 16 end
|  3> *XYZFile 0 2 opt.xyz
|  4> %EPRNMR
|  5>         GTENSOR   TRUE
|  6>         NUCLEI    = 9,15,16,17,18,19 {SHIFT, AISO, ADIP, AORB}
|  7>         ORI       GIAO
|  8> END
|  9>
| 10>                          ****END OF INPUT****

CARTESIAN COORDINATES (ANGSTROEM)
---------------------------------
  N     -1.836986    0.779515    0.765584
  C     -1.498665   -0.110725   -0.332220
  C     -1.654939   -1.553918    0.191613
  O     -1.725883   -1.799499    1.397460
  C     -0.075052    0.147253   -0.899573
  C      1.067841   -0.089957    0.101560
  C      2.446202    0.242055   -0.498044
  C      3.602898    0.003656    0.500832
  N      4.920789    0.265334   -0.046681
  H     -2.214114    0.061484   -1.146024
  H     -0.059865    1.184258   -1.251100
  H      0.071386   -0.487277   -1.783633
  H      1.062334   -1.134567    0.438472
  H      0.900346    0.525669    0.993565
  H      2.464339    1.290401   -0.826587
  H      2.620269   -0.372843   -1.390247
  H      3.574967   -1.026974    0.874604
  H      3.450190    0.666620    1.373454
  H      4.869491    1.197353   -0.483288
  H     -1.899344    0.339718    1.675086
  C     -2.282996    2.055130    0.556082
  N     -1.675301   -2.516363   -0.774775
  H     -1.663016   -2.220927   -1.739197
  O     -2.341449    2.556841   -0.567594
  C     -2.692875    2.827868    1.806239
  H     -2.071978    3.724998    1.879298
  H     -3.729910    3.153219    1.687552
  H     -2.598468    2.248344    2.728444
  C     -1.786173   -3.941590   -0.481371
  H     -2.742782   -4.344039   -0.831750
  H     -0.969637   -4.497817   -0.952640
  H     -1.726549   -4.063967    0.600081

 Total Charge           Charge          ....    0
 Multiplicity           Mult            ....    2
 Number of Electrons    NEL             ....  109
 Basis Dimension        Dim             ....  364

ORBITAL ENERGIES
----------------
                 SPIN UP ORBITALS
  NO   OCC          E(Eh)            E(eV)
   0   1.0000     -19.126341      -520.4542
   1   1.0000     -19.103437      -519.8310
   2   1.0000     -14.376619      -391.2077
   3   1.0000     -14.353598      -390.5813
   4   1.0000     -14.344643      -390.3376
   5   1.0000     -10.307920      -280.4928
   6   1.0000     -10.291852      -280.0555
   7   1.0000     -10.243834      -278.7489
   8   1.0000     -10.228612      -278.3347
   9   1.0000     -10.213558      -277.9250
  10   1.0000     -10.196756      -277.4678
  11   1.0000     -10.194886      -277.4170
  12   1.0000     -10.190729      -277.3038
  13   1.0000     -10.188988      -277.2565
  14   1.0000      -1.049511       -28.5586
  15   1.0000      -1.025761       -27.9124
  16   1.0000      -0.935817       -25.4649
  17   1.0000      -0.920499       -25.0480
  18   1.0000      -0.883021       -24.0282
  19   1.0000      -0.805235       -21.9116
  20   1.0000      -0.764259       -20.7965
  21   1.0000      -0.730897       -19.8887
  22   1.0000      -0.714210       -19.4347
  23   1.0000      -0.669044       -18.2056
  24   1.0000      -0.619955       -16.8698
  25   1.0000      -0.601796       -16.3757
  26   1.0000      -0.597131       -16.2488
  27   1.0000      -0.568412       -15.4673
  28   1.0000      -0.541572       -14.7369
  29   1.0000      -0.489293       -13.3143
  30   1.0000      -0.486400       -13.2356
  31   1.0000      -0.475760       -12.9461
  32   1.0000      -0.471427       -12.8282
  33   1.0000      -0.461821       -12.5668
  34   1.0000      -0.452358       -12.3093
  35   1.0000      -0.446745       -12.1565
  36   1.0000      -0.435420       -11.8484
  37   1.0000      -0.431309       -11.7365
  38   1.0000      -0.409642       -11.1469
  39   1.0000      -0.405027       -11.0213
  40   1.0000      -0.403836       -10.9889
  41   1.0000      -0.395245       -10.7552
  42   1.0000      -0.392243       -10.6735
  43   1.0000      -0.379428       -10.3248
  44   1.0000      -0.369066       -10.0428
  45   1.0000      -0.367309        -9.9950
  46   1.0000      -0.345900        -9.4124
  47   1.0000      -0.342489        -9.3196
  48   1.0000      -0.338480        -9.2105
  49   1.0000      -0.282638        -7.6910
  50   1.0000      -0.274708        -7.4752
  51   1.0000      -0.273945        -7.4544
  52   1.0000      -0.264975        -7.2103
  53   1.0000      -0.252340        -6.8665
  54   1.0000      -0.249594        -6.7918
  55   0.0000       0.001600         0.0435
  56   0.0000       0.007062         0.1922
  57   0.0000       0.020844         0.5672
  58   0.0000       0.024119         0.6563
  59   0.0000       0.028546         0.7768

                 SPIN DOWN ORBITALS
  NO   OCC          E(Eh)            E(eV)
   0   1.0000     -19.126341      -520.4542
   1   1.0000     -19.103437      -519.8310
   2   1.0000     -14.376618      -391.2077
   3   1.0000     -14.353599      -390.5813
   4   1.0000     -14.326130      -389.8338
   5   1.0000     -10.307921      -280.4928
   6   1.0000     -10.291852      -280.0555
   7   1.0000     -10.243809      -278.7482
   8   1.0000     -10.228612      -278.3347
   9   1.0000     -10.214310      -277.9455
  10   1.0000     -10.196733      -277.4672
  11   1.0000     -10.193909      -277.3904
  12   1.0000     -10.190640      -277.3014
  13   1.0000     -10.188988      -277.2565
  14   1.0000      -1.049509       -28.5586
  15   1.0000      -1.025760       -27.9124
  16   1.0000      -0.935815       -25.4648
  17   1.0000      -0.920487       -25.0477
  18   1.0000      -0.851486       -23.1701
  19   1.0000      -0.802192       -21.8288
  20   1.0000      -0.760153       -20.6848
  21   1.0000      -0.730775       -19.8854
  22   1.0000      -0.710168       -19.3247
  23   1.0000      -0.664225       -18.0745
  24   1.0000      -0.615389       -16.7456
  25   1.0000      -0.601795       -16.3757
  26   1.0000      -0.593556       -16.1515
  27   1.0000      -0.568228       -15.4623
  28   1.0000      -0.541554       -14.7364
  29   1.0000      -0.486224       -13.2308
  30   1.0000      -0.485194       -13.2028
  31   1.0000      -0.475487       -12.9387
  32   1.0000      -0.470387       -12.7999
  33   1.0000      -0.460457       -12.5297
  34   1.0000      -0.451373       -12.2825
  35   1.0000      -0.441486       -12.0135
  36   1.0000      -0.434558       -11.8249
  37   1.0000      -0.426677       -11.6105
  38   1.0000      -0.407625       -11.0920
  39   1.0000      -0.404693       -11.0123
  40   1.0000      -0.399062       -10.8590
  41   1.0000      -0.394427       -10.7329
  42   1.0000      -0.389147       -10.5892
  43   1.0000      -0.375391       -10.2149
  44   1.0000      -0.367065        -9.9884
  45   1.0000      -0.364781        -9.9262
  46   1.0000      -0.344798        -9.3824
  47   1.0000      -0.339120        -9.2279
  48   1.0000      -0.337528        -9.1846
  49   1.0000      -0.274698        -7.4749
  50   1.0000      -0.273878        -7.4526
  51   1.0000      -0.263768        -7.1775
  52   1.0000      -0.252298        -6.8654
  53   1.0000      -0.249595        -6.7918
  54   0.0000      -0.089387        -2.4323
  55   0.0000       0.001640         0.0446
  56   0.0000       0.007094         0.1930
  57   0.0000       0.020955         0.5702
  58   0.0000       0.024149         0.6571

MULLIKEN ATOMIC CHARGES AND SPIN POPULATIONS
--------------------------------------------
   0 N :   -0.119425    0.000062
   1 C :   -0.127751    0.000655
   2 C :    0.088716    0.000120
   3 O :   -0.331739   -0.000002
   4 C :   -0.278609    0.000096
   5 C :   -0.236260    0.005816
   6 C :   -0.302968    0.053620
   7 C :   -0.277481   -0.065831
   8 N :   -0.283944    0.970891
   9 H :    0.165159    0.000242
  10 H :    0.179134   -0.000031
  11 H :    0.131502    0.000134
  12 H :    0.149527   -0.000068
  13 H :    0.154315    0.000054
  14 H :    0.146226   -0.002512
  15 H :    0.155512   -0.000872
  16 H :    0.161632    0.003209
  17 H :    0.161452    0.065879
  18 H :    0.191587   -0.031499
  19 H :    0.253411    0.000000
  20 C :    0.169455    0.000039
  21 N :   -0.094079    0.000012
  22 H :    0.231501   -0.000002
  23 O :   -0.325116   -0.000005
  24 C :   -0.553975   -0.000009
  25 H :    0.185334    0.000003
  26 H :    0.187209    0.000001
  27 H :    0.149500   -0.000000
  28 C :   -0.457922   -0.000010
  29 H :    0.166001    0.000003
  30 H :    0.161472    0.000003
  31 H :    0.200624   -0.000000
Sum of atomic charges         :   -0.0000000

LOEWDIN ATOMIC CHARGES AND SPIN POPULATIONS
-------------------------------------------
   0 N :    0.063161    0.000039
   1 C :   -0.048230    0.000853
   2 C :   -0.093988    0.000009
   3 O :   -0.194049    0.000011
   4 C :   -0.057843    0.000964
   5 C :   -0.070530    0.003908
   6 C :   -0.084382    0.036552
   7 C :   -0.088271    0.008596
   8 N :   -0.066182    0.890724
   9 H :    0.067058    0.000119
  10 H :    0.058850   -0.000015
  11 H :    0.042965    0.000113
  12 H :    0.049322    0.000062
  13 H :    0.049163    0.000178
  14 H :    0.043503   -0.000060
  15 H :    0.046168   -0.000381
  16 H :    0.040044    0.001765
  17 H :    0.056290    0.048433
  18 H :    0.045838    0.008057
  19 H :    0.090623    0.000007
  20 C :   -0.104704    0.000014
  21 N :    0.041760    0.000038
  22 H :    0.079764    0.000002
  23 O :   -0.197888    0.000009
  24 C :   -0.042596   -0.000001
  25 H :    0.054068    0.000001
  26 H :    0.054845    0.000001
  27 H :    0.033830    0.000000
  28 C :    0.012039   -0.000001
  29 H :    0.032273    0.000002
  30 H :    0.031975    0.000002
  31 H :    0.055125    0.000000

  Mayer bond orders larger than 0.100000
B(  0-N ,  1-C ) :   1.0216 B(  0-N , 19-H ) :   0.8927 B(  0-N , 20-C ) :   1.2066
B(  1-C ,  2-C ) :   0.8992 B(  1-C ,  4-C ) :   0.9291 B(  1-C ,  9-H ) :   0.9721
B(  1-C , 23-O ) :   0.1438 B(  2-C ,  3-O ) :   1.8698 B(  2-C , 21-N ) :   1.1863
B(  4-C ,  5-C ) :   0.9628 B(  4-C , 10-H ) :   0.9636 B(  4-C , 11-H ) :   0.9757
B(  5-C ,  6-C ) :   0.9741 B(  5-C , 12-H ) :   0.9609 B(  5-C , 13-H ) :   0.9707
B(  6-C ,  7-C ) :   0.9458 B(  6-C , 14-H ) :   0.9664 B(  6-C , 15-H ) :   0.9687
B(  7-C ,  8-N ) :   1.0504 B(  7-C , 16-H ) :   0.9529 B(  7-C , 17-H ) :   0.9253
B(  8-N , 18-H ) :   0.9205 B( 20-C , 23-O ) :   1.8604 B( 20-C , 24-C ) :   0.8947
B( 21-N , 22-H ) :   0.9299 B( 21-N , 28-C ) :   0.9694 B( 24-C , 25-H ) :   0.9586
B( 24-C , 26-H ) :   0.9583 B( 24-C , 27-H ) :   0.9758 B( 28-C , 29-H ) :   0.9594
B( 28-C , 30-H ) :   0.9596 B( 28-C , 31-H ) :   0.9432

FINAL SINGLE POINT ENERGY      -668.218434292161

DIPOLE MOMENT
-------------
                                X             Y             Z
Electronic contribution:     -6.70224       1.24451       0.11573
Nuclear contribution   :      6.13536      -2.05579      -0.42976
                        -----------------------------------------
Total Dipole Moment    :     -0.56688      -0.81128      -0.31402
                        -----------------------------------------
Magnitude (a.u.)       :      1.03834
Magnitude (Debye)      :      2.63925

Rotational constants in cm-1:     0.019698     0.013332     0.009039
Rotational constants in MHz :   590.518406   399.676725   270.984480

CHEMICAL SHIELDING SUMMARY (ppm)  --  Orbital contribution
----------------------------------------------------------

  Nucleus  Element    Isotropic     Anisotropy
  -------  -------  ------------   ------------
      8       N         -250.552       -887.121
     14       H           30.851          7.037
     15       H           30.579          5.256
     16       H           26.581          8.224
     17       H           28.167          4.634
     18       H           16.542         16.612

                             ****ORCA TERMINATED NORMALLY****
TOTAL RUN TIME: 0 days 0 hours 3 minutes 33 seconds 782 msec
