                         Program Version 5.0.4 -  RELEASE  -
|  1> ! M062X def2-TZVP OPT FREQ
|  2> %pal nprocs 16 end
|  3> *XYZFile 0 2 opt.xyz
|  4>
|  5>                          ****END OF INPUT****
 Total Charge           Charge          ....    0
 Multiplicity           Mult            ....    2
 Number of Electrons    NEL             ....  109
FINAL SINGLE POINT ENERGY      -668.439392354860
FINAL SINGLE POINT ENERGY      -668.442298532815
FINAL SINGLE POINT ENERGY      -668.442411751277
FINAL SINGLE POINT ENERGY      -668.442434929260
FINAL SINGLE POINT ENERGY      -668.442458046071
FINAL SINGLE POINT ENERGY      -668.442467565532
FINAL SINGLE POINT ENERGY      -668.442473577898
FINAL SINGLE POINT ENERGY      -668.442480262510
FINAL SINGLE POINT ENERGY      -668.442486065465
FINAL SINGLE POINT ENERGY      -668.442488339944
FINAL SINGLE POINT ENERGY      -668.442486834331
                    ***********************HURRAY********************

CARTESIAN COORDINATES (ANGSTROEM)
---------------------------------
  N     -1.867354    0.784652    0.766633
  C     -1.542570   -0.095030   -0.328051
  C     -1.646856   -1.526832    0.195524
  O     -1.775432   -1.766755    1.381206
  C     -0.144960    0.186064   -0.902551
  C      0.982015   -0.127475    0.071482
  C      2.349531    0.237051   -0.493361
  C      3.485667   -0.094531    0.476685
  N      4.791490    0.168148   -0.068021
  H     -2.279257    0.056229   -1.123101
  H     -0.126943    1.239642   -1.188345
  H     -0.009941   -0.392208   -1.821281
  H      0.967846   -1.192737    0.324568
  H      0.812731    0.415231    1.005935
  H      2.378048    1.305280   -0.730907
  H      2.519363   -0.299620   -1.431263
  H      3.430897   -1.144705    0.771992
  H      3.351685    0.505622    1.389479
  H      4.781090    1.137618   -0.401789
  H     -1.941239    0.351432    1.675419
  C     -2.253128    2.064637    0.547585
  N     -1.542058   -2.484856   -0.750555
  H     -1.487752   -2.197635   -1.713060
  O     -2.282341    2.547698   -0.568868
  C     -2.626603    2.860132    1.775864
  H     -1.907221    3.670297    1.892476
  H     -3.605899    3.306983    1.613470
  H     -2.642198    2.260946    2.684541
  C     -1.585034   -3.898668   -0.439692
  H     -2.535233   -4.342548   -0.740102
  H     -0.771912   -4.420737   -0.942468
  H     -1.471362   -4.004076    0.635758

 Multiplicity           Mult            ....    2
 Number of Electrons    NEL             ....  109
 Basis Dimension        Dim             ....  542

ORBITAL ENERGIES
----------------
                 SPIN UP ORBITALS
  NO   OCC          E(Eh)            E(eV)
   0   1.0000     -19.609927      -533.6132
   1   1.0000     -19.587050      -532.9907
   2   1.0000     -14.789936      -402.4546
   3   1.0000     -14.769164      -401.8894
   4   1.0000     -14.760894      -401.6644
   5   1.0000     -10.656548      -289.9794
   6   1.0000     -10.640668      -289.5473
   7   1.0000     -10.593208      -288.2558
   8   1.0000     -10.580210      -287.9021
   9   1.0000     -10.562383      -287.4170
  10   1.0000     -10.546239      -286.9777
  11   1.0000     -10.543749      -286.9100
  12   1.0000     -10.540478      -286.8210
  13   1.0000     -10.539571      -286.7963
  14   1.0000      -1.184435       -32.2301
  15   1.0000      -1.160874       -31.5890
  16   1.0000      -1.051999       -28.6263
  17   1.0000      -1.038387       -28.2559
  18   1.0000      -0.999250       -27.1910
  19   1.0000      -0.915271       -24.9058
  20   1.0000      -0.868987       -23.6463
  21   1.0000      -0.831373       -22.6228
  22   1.0000      -0.811604       -22.0849
  23   1.0000      -0.763219       -20.7682
  24   1.0000      -0.710832       -19.3427
  25   1.0000      -0.688203       -18.7270
  26   1.0000      -0.686088       -18.6694
  27   1.0000      -0.653169       -17.7736
  28   1.0000      -0.625434       -17.0189
  29   1.0000      -0.573149       -15.5962
  30   1.0000      -0.570791       -15.5320
  31   1.0000      -0.558620       -15.2008
  32   1.0000      -0.554117       -15.0783
  33   1.0000      -0.544238       -14.8095
  34   1.0000      -0.531888       -14.4734
  35   1.0000      -0.523239       -14.2381
  36   1.0000      -0.513157       -13.9637
  37   1.0000      -0.506655       -13.7868
  38   1.0000      -0.485313       -13.2060
  39   1.0000      -0.482107       -13.1188
  40   1.0000      -0.472943       -12.8694
  41   1.0000      -0.469428       -12.7738
  42   1.0000      -0.465561       -12.6686
  43   1.0000      -0.452010       -12.2998
  44   1.0000      -0.439748       -11.9662
  45   1.0000      -0.439054       -11.9473
  46   1.0000      -0.413550       -11.2533
  47   1.0000      -0.411810       -11.2059
  48   1.0000      -0.401561       -10.9270
  49   1.0000      -0.355106        -9.6629
  50   1.0000      -0.351200        -9.5567
  51   1.0000      -0.341824        -9.3015
  52   1.0000      -0.332224        -9.0403
  53   1.0000      -0.330539        -8.9944
  54   1.0000      -0.318075        -8.6552
  55   0.0000       0.037242         1.0134
  56   0.0000       0.048930         1.3314
  57   0.0000       0.060200         1.6381
  58   0.0000       0.066981         1.8227
  59   0.0000       0.071012         1.9323

                 SPIN DOWN ORBITALS
  NO   OCC          E(Eh)            E(eV)
   0   1.0000     -19.609927      -533.6133
   1   1.0000     -19.587050      -532.9907
   2   1.0000     -14.789935      -402.4546
   3   1.0000     -14.769165      -401.8894
   4   1.0000     -14.750435      -401.3797
   5   1.0000     -10.656548      -289.9794
   6   1.0000     -10.640668      -289.5473
   7   1.0000     -10.593193      -288.2554
   8   1.0000     -10.580210      -287.9021
   9   1.0000     -10.563006      -287.4340
  10   1.0000     -10.546224      -286.9774
  11   1.0000     -10.543018      -286.8901
  12   1.0000     -10.540422      -286.8195
  13   1.0000     -10.539571      -286.7963
  14   1.0000      -1.184434       -32.2301
  15   1.0000      -1.160873       -31.5890
  16   1.0000      -1.051997       -28.6263
  17   1.0000      -1.038375       -28.2556
  18   1.0000      -0.962048       -26.1786
  19   1.0000      -0.911404       -24.8006
  20   1.0000      -0.863924       -23.5086
  21   1.0000      -0.831014       -22.6130
  22   1.0000      -0.806763       -21.9531
  23   1.0000      -0.757734       -20.6190
  24   1.0000      -0.705501       -19.1976
  25   1.0000      -0.688193       -18.7267
  26   1.0000      -0.681186       -18.5360
  27   1.0000      -0.652890       -17.7660
  28   1.0000      -0.625403       -17.0181
  29   1.0000      -0.572666       -15.5830
  30   1.0000      -0.565497       -15.3880
  31   1.0000      -0.558150       -15.1880
  32   1.0000      -0.553493       -15.0613
  33   1.0000      -0.542050       -14.7499
  34   1.0000      -0.530377       -14.4323
  35   1.0000      -0.516328       -14.0500
  36   1.0000      -0.511995       -13.9321
  37   1.0000      -0.500829       -13.6283
  38   1.0000      -0.482164       -13.1203
  39   1.0000      -0.476556       -12.9678
  40   1.0000      -0.472700       -12.8628
  41   1.0000      -0.465699       -12.6723
  42   1.0000      -0.462982       -12.5984
  43   1.0000      -0.446326       -12.1451
  44   1.0000      -0.436879       -11.8881
  45   1.0000      -0.434832       -11.8324
  46   1.0000      -0.410542       -11.1714
  47   1.0000      -0.407018       -11.0755
  48   1.0000      -0.400066       -10.8863
  49   1.0000      -0.351171        -9.5558
  50   1.0000      -0.341832        -9.3017
  51   1.0000      -0.331661        -9.0250
  52   1.0000      -0.330554        -8.9948
  53   1.0000      -0.318260        -8.6603
  54   0.0000      -0.038806        -1.0560
  55   0.0000       0.037227         1.0130
  56   0.0000       0.048859         1.3295
  57   0.0000       0.059972         1.6319
  58   0.0000       0.066975         1.8225

MULLIKEN ATOMIC CHARGES AND SPIN POPULATIONS
--------------------------------------------
   0 N :   -0.395816   -0.000068
   1 C :   -0.093231    0.000574
   2 C :    0.369136   -0.000508
   3 O :   -0.411486    0.000027
   4 C :   -0.331071    0.001027
   5 C :   -0.301945    0.011007
   6 C :   -0.296743    0.053182
   7 C :   -0.134185   -0.104287
   8 N :   -0.328507    1.015350
   9 H :    0.191978    0.000152
  10 H :    0.199358   -0.000021
  11 H :    0.151380    0.000257
  12 H :    0.150572   -0.000187
  13 H :    0.152880   -0.000334
  14 H :    0.141513   -0.002727
  15 H :    0.150001   -0.001879
  16 H :    0.133793    0.004231
  17 H :    0.142942    0.062224
  18 H :    0.207139   -0.038116
  19 H :    0.268628    0.000004
  20 C :    0.388479    0.000049
  21 N :   -0.346693    0.000052
  22 H :    0.247176   -0.000014
  23 O :   -0.412527    0.000007
  24 C :   -0.456275   -0.000004
  25 H :    0.157420   -0.000000
  26 H :    0.160674   -0.000000
  27 H :    0.129353    0.000000
  28 C :   -0.309737    0.000003
  29 H :    0.148861    0.000002
  30 H :    0.144751   -0.000001
  31 H :    0.182184    0.000000
Sum of atomic charges         :   -0.0000000

LOEWDIN ATOMIC CHARGES AND SPIN POPULATIONS
-------------------------------------------
   0 N :    0.144776    0.000027
   1 C :   -0.249379    0.000719
   2 C :   -0.442342    0.000020
   3 O :    0.058596   -0.000004
   4 C :   -0.239895    0.001204
   5 C :   -0.265526    0.004237
   6 C :   -0.275310    0.030966
   7 C :   -0.369392    0.060499
   8 N :   -0.043345    0.865190
   9 H :    0.165732    0.000087
  10 H :    0.154019   -0.000010
  11 H :    0.137252    0.000072
  12 H :    0.143873   -0.000005
  13 H :    0.141910    0.000103
  14 H :    0.137594   -0.000151
  15 H :    0.139525    0.000267
  16 H :    0.130151    0.000768
  17 H :    0.138881    0.034895
  18 H :    0.139434    0.001067
  19 H :    0.194582    0.000009
  20 C :   -0.482807    0.000012
  21 N :    0.100622    0.000018
  22 H :    0.186946    0.000002
  23 O :    0.052061    0.000004
  24 C :   -0.262541   -0.000000
  25 H :    0.138705    0.000000
  26 H :    0.138664    0.000000
  27 H :    0.122353   -0.000000
  28 C :   -0.301570    0.000001
  29 H :    0.116018    0.000001
  30 H :    0.116289    0.000000
  31 H :    0.134123   -0.000000

  Mayer bond orders larger than 0.100000
B(  0-N ,  1-C ) :   0.9245 B(  0-N , 19-H ) :   0.8769 B(  0-N , 20-C ) :   1.2073
B(  1-C ,  2-C ) :   0.9332 B(  1-C ,  4-C ) :   0.8790 B(  1-C ,  9-H ) :   0.9927
B(  2-C ,  3-O ) :   1.9129 B(  2-C , 21-N ) :   1.2261 B(  4-C ,  5-C ) :   0.8458
B(  4-C , 10-H ) :   0.9704 B(  4-C , 11-H ) :   0.9920 B(  5-C ,  6-C ) :   0.9138
B(  5-C , 12-H ) :   0.9773 B(  5-C , 13-H ) :   0.9791 B(  6-C ,  7-C ) :   0.9150
B(  6-C , 14-H ) :   0.9717 B(  6-C , 15-H ) :   0.9722 B(  7-C ,  8-N ) :   1.0200
B(  7-C , 16-H ) :   0.9671 B(  7-C , 17-H ) :   0.9520 B(  8-N , 18-H ) :   0.9202
B( 20-C , 23-O ) :   1.9169 B( 20-C , 24-C ) :   0.9110 B( 21-N , 22-H ) :   0.9176
B( 21-N , 28-C ) :   0.9017 B( 24-C , 25-H ) :   0.9550 B( 24-C , 26-H ) :   0.9657
B( 24-C , 27-H ) :   0.9859 B( 28-C , 29-H ) :   0.9696 B( 28-C , 30-H ) :   0.9678
B( 28-C , 31-H ) :   0.9623

FINAL SINGLE POINT ENERGY      -668.442487379036

DIPOLE MOMENT
-------------
                                X             Y             Z
Electronic contribution:     -6.81975       1.31993       0.09298
Nuclear contribution   :      6.37024      -2.03229      -0.32154
                        -----------------------------------------
Total Dipole Moment    :     -0.44951      -0.71236      -0.22856
                        -----------------------------------------
Magnitude (a.u.)       :      0.87278
Magnitude (Debye)      :      2.21844

VIBRATIONAL FREQUENCIES
-----------------------

Scaling factor for frequencies =  1.000000000  (already applied!)

   0:         0.00 cm**-1
   1:         0.00 cm**-1
   2:         0.00 cm**-1
   3:         0.00 cm**-1
   4:         0.00 cm**-1
   5:         0.00 cm**-1
   6:        34.80 cm**-1
   7:        49.50 cm**-1
   8:        66.20 cm**-1
   9:        72.66 cm**-1
  10:        86.90 cm**-1
  11:       101.20 cm**-1
  12:       107.86 cm**-1
  13:       116.46 cm**-1
  14:       116.98 cm**-1
  15:       145.92 cm**-1
  16:       150.31 cm**-1
  17:       170.78 cm**-1
  18:       212.55 cm**-1
  19:       248.30 cm**-1
  20:       300.57 cm**-1
  21:       332.10 cm**-1
  22:       356.19 cm**-1
  23:       385.20 cm**-1
  24:       392.77 cm**-1
  25:       433.52 cm**-1
  26:       494.78 cm**-1
  27:       522.35 cm**-1
  28:       550.76 cm**-1
  29:       576.54 cm**-1
  30:       637.43 cm**-1
  31:       666.05 cm**-1
  32:       699.65 cm**-1
  33:       745.27 cm**-1
  34:       787.76 cm**-1
  35:       818.29 cm**-1
  36:       888.08 cm**-1
  37:       914.74 cm**-1
  38:       950.20 cm**-1
  39:      1006.62 cm**-1
  40:      1020.70 cm**-1
  41:      1028.71 cm**-1
  42:      1057.71 cm**-1
  43:      1066.20 cm**-1
  44:      1072.08 cm**-1
  45:      1078.87 cm**-1
  46:      1096.77 cm**-1
  47:      1098.33 cm**-1
  48:      1142.21 cm**-1
  49:      1159.18 cm**-1
  50:      1182.67 cm**-1
  51:      1217.21 cm**-1
  52:      1221.22 cm**-1
  53:      1250.88 cm**-1
  54:      1265.70 cm**-1
  55:      1278.37 cm**-1
  56:      1295.50 cm**-1
  57:      1323.18 cm**-1
  58:      1336.48 cm**-1
  59:      1341.95 cm**-1
  60:      1378.53 cm**-1
  61:      1388.97 cm**-1
  62:      1400.17 cm**-1
  63:      1411.47 cm**-1
  64:      1419.50 cm**-1
  65:      1450.53 cm**-1
  66:      1476.63 cm**-1
  67:      1484.24 cm**-1
  68:      1486.92 cm**-1
  69:      1489.09 cm**-1
  70:      1494.88 cm**-1
  71:      1505.22 cm**-1
  72:      1508.39 cm**-1
  73:      1511.60 cm**-1
  74:      1548.92 cm**-1
  75:      1590.57 cm**-1
  76:      1775.67 cm**-1
  77:      1789.91 cm**-1
  78:      2997.70 cm**-1
  79:      3051.63 cm**-1
  80:      3058.90 cm**-1
  81:      3067.93 cm**-1
  82:      3076.14 cm**-1
  83:      3079.06 cm**-1
  84:      3088.88 cm**-1
  85:      3089.06 cm**-1
  86:      3098.98 cm**-1
  87:      3114.48 cm**-1
  88:      3131.23 cm**-1
  89:      3143.82 cm**-1
  90:      3171.71 cm**-1
  91:      3183.11 cm**-1
  92:      3193.80 cm**-1
  93:      3416.29 cm**-1
  94:      3619.43 cm**-1
  95:      3660.67 cm**-1

IR SPECTRUM
-----------

 Mode   freq       eps      Int      T**2         TX        TY        TZ
       cm**-1   L/(mol*cm) km/mol    a.u.
----------------------------------------------------------------------------
  6:     34.80   0.000386    1.95  0.003461  ( 0.048620  0.032641  0.005666)
  7:     49.50   0.000221    1.12  0.001391  ( 0.035820 -0.010408 -0.000101)
  8:     66.20   0.000192    0.97  0.000906  (-0.010457 -0.027728  0.005302)
  9:     72.66   0.000246    1.24  0.001056  ( 0.009771 -0.019094  0.024422)
 10:     86.90   0.001897    9.59  0.006813  ( 0.080906  0.009433 -0.013334)
 11:    101.20   0.001530    7.73  0.004717  ( 0.050234  0.040801  0.022992)
 12:    107.86   0.000391    1.98  0.001132  ( 0.007934  0.032444  0.004070)
 13:    116.46   0.000195    0.99  0.000523  ( 0.017317  0.013750  0.005869)
 14:    116.98   0.000091    0.46  0.000242  (-0.005685  0.013925  0.003987)
 15:    145.92   0.000713    3.60  0.001525  ( 0.035170 -0.016925  0.001409)
 16:    150.31   0.002084   10.53  0.004326  ( 0.030027 -0.057322  0.011766)
 17:    170.78   0.000750    3.79  0.001370  (-0.026307 -0.025539  0.005045)
 18:    212.55   0.000596    3.01  0.000875  (-0.023644 -0.007488  0.016117)
 19:    248.30   0.000831    4.20  0.001044  ( 0.012462 -0.020733 -0.021431)
 20:    300.57   0.000857    4.33  0.000890  (-0.013778  0.026295  0.002990)
 21:    332.10   0.001067    5.39  0.001003  (-0.025850  0.012434 -0.013407)
 22:    356.19   0.000467    2.36  0.000409  ( 0.012649  0.015710 -0.001566)
 23:    385.20   0.009671   48.87  0.007835  (-0.040050 -0.031076 -0.072559)
 24:    392.77   0.003917   19.79  0.003112  (-0.001234 -0.052040 -0.020059)
 25:    433.52   0.003277   16.56  0.002359  ( 0.015523 -0.019759 -0.041560)
 26:    494.78   0.008267   41.78  0.005214  ( 0.070610  0.000632 -0.015095)
 27:    522.35   0.006346   32.07  0.003791  ( 0.053018  0.022533  0.021741)
 28:    550.76   0.018947   95.75  0.010735  (-0.102410 -0.009136 -0.012812)
 29:    576.54   0.002511   12.69  0.001359  (-0.015265 -0.031857 -0.010538)
 30:    637.43   0.003019   15.26  0.001478  ( 0.031973 -0.020811  0.004744)
 31:    666.05   0.000738    3.73  0.000346  (-0.014312 -0.011296 -0.003641)
 32:    699.65   0.000293    1.48  0.000131  ( 0.007399 -0.003756 -0.007870)
 33:    745.27   0.001029    5.20  0.000431  ( 0.008156 -0.018336 -0.005321)
 34:    787.76   0.000330    1.67  0.000131  (-0.007307 -0.007038  0.005262)
 35:    818.29   0.000899    4.54  0.000343  (-0.014361 -0.010999 -0.003968)
 36:    888.08   0.000508    2.57  0.000178  ( 0.008256 -0.001256  0.010423)
 37:    914.74   0.000702    3.55  0.000239  (-0.010738  0.011042 -0.001448)
 38:    950.20   0.001993   10.07  0.000655  (-0.012691  0.009109  0.020260)
 39:   1006.62   0.000415    2.10  0.000129  (-0.008928 -0.006427 -0.002739)
 40:   1020.70   0.002588   13.08  0.000791  ( 0.005073 -0.027663 -0.000589)
 41:   1028.71   0.000972    4.91  0.000295  (-0.006504 -0.001217  0.015843)
 42:   1057.71   0.001660    8.39  0.000490  (-0.019061 -0.010220  0.004693)
 43:   1066.20   0.001363    6.89  0.000399  (-0.019392 -0.004191 -0.002302)
 44:   1072.08   0.000031    0.15  0.000009  (-0.000993 -0.002812  0.000134)
 45:   1078.87   0.001035    5.23  0.000299  (-0.004141  0.006751  0.015383)
 46:   1096.77   0.001455    7.35  0.000414  (-0.016781 -0.010964 -0.003474)
 47:   1098.33   0.002699   13.64  0.000767  ( 0.024709  0.007111 -0.010280)
 48:   1142.21   0.000395    2.00  0.000108  (-0.000329  0.010315  0.001183)
 49:   1159.18   0.001544    7.80  0.000416  (-0.003095  0.017546  0.009916)
 50:   1182.67   0.004502   22.75  0.001188  ( 0.003154  0.029175  0.018081)
 51:   1217.21   0.002217   11.20  0.000568  ( 0.000297 -0.020998 -0.011283)
 52:   1221.22   0.001967    9.94  0.000503  ( 0.021124 -0.005417 -0.005209)
 53:   1250.88   0.006908   34.91  0.001723  ( 0.010500 -0.038835 -0.010247)
 54:   1265.70   0.002344   11.84  0.000578  ( 0.004527  0.023543  0.001743)
 55:   1278.37   0.004920   24.86  0.001201  ( 0.021548  0.027123 -0.001054)
 56:   1295.50   0.005151   26.03  0.001241  (-0.007965  0.033970  0.004839)
 57:   1323.18   0.000582    2.94  0.000137  (-0.006861  0.002347  0.009202)
 58:   1336.48   0.004521   22.85  0.001056  ( 0.022238 -0.022979 -0.005749)
 59:   1341.95   0.000611    3.09  0.000142  ( 0.010166 -0.006078 -0.001369)
 60:   1378.53   0.003872   19.57  0.000877  ( 0.011310  0.027249 -0.002467)
 61:   1388.97   0.000470    2.38  0.000106  (-0.000517 -0.010010  0.002285)
 62:   1400.17   0.001646    8.32  0.000367  ( 0.014276  0.009354 -0.008693)
 63:   1411.47   0.008148   41.18  0.001802  ( 0.011995 -0.036701 -0.017626)
 64:   1419.50   0.000724    3.66  0.000159  ( 0.011035 -0.004968  0.003553)
 65:   1450.53   0.003287   16.61  0.000707  ( 0.005425  0.002249  0.025937)
 66:   1476.63   0.002313   11.69  0.000489  ( 0.018990 -0.010164  0.004980)
 67:   1484.24   0.000376    1.90  0.000079  ( 0.000691 -0.005078  0.007265)
 68:   1486.92   0.001023    5.17  0.000215  ( 0.005106  0.010388 -0.008985)
 69:   1489.09   0.009845   49.75  0.002063  ( 0.004459 -0.044463  0.008149)
 70:   1494.88   0.000117    0.59  0.000024  ( 0.003794 -0.001066 -0.002968)
 71:   1505.22   0.006041   30.53  0.001252  (-0.015254  0.031692  0.003917)
 72:   1508.39   0.002172   10.98  0.000449  ( 0.005175  0.006634 -0.019457)
 73:   1511.60   0.011496   58.10  0.002373  (-0.005897 -0.047882 -0.006773)
 74:   1548.92   0.098461  497.58  0.019837  ( 0.046307 -0.126093 -0.042349)
 75:   1590.57   0.027050  136.70  0.005307  (-0.015625 -0.059638 -0.038811)
 76:   1775.67   0.083911  424.05  0.014747  ( 0.007144 -0.045955  0.112178)
 77:   1789.91   0.019299   97.53  0.003365  ( 0.020478 -0.036749 -0.039935)
 78:   2997.70   0.002527   12.77  0.000263  ( 0.000687 -0.002101 -0.016068)
 79:   3051.63   0.000174    0.88  0.000018  ( 0.001437 -0.000282 -0.003953)
 80:   3058.90   0.003109   15.71  0.000317  ( 0.001165  0.011607 -0.013456)
 81:   3067.93   0.004087   20.65  0.000416  (-0.006553 -0.006491  0.018183)
 82:   3076.14   0.011061   55.90  0.001122  ( 0.006668  0.030337  0.012543)
 83:   3079.06   0.002780   14.05  0.000282  ( 0.002903  0.006214  0.015319)
 84:   3088.88   0.000374    1.89  0.000038  (-0.001715 -0.004990  0.003148)
 85:   3089.06   0.000613    3.10  0.000062  (-0.001247  0.000656  0.007740)
 86:   3098.98   0.002099   10.61  0.000211  ( 0.004986  0.006273 -0.012131)
 87:   3114.48   0.004803   24.27  0.000481  ( 0.002083  0.021328  0.004697)
 88:   3131.23   0.004595   23.22  0.000458  (-0.002827 -0.019517 -0.008311)
 89:   3143.82   0.002840   14.35  0.000282  ( 0.016377 -0.002616 -0.002628)
 90:   3171.71   0.000450    2.27  0.000044  (-0.004628 -0.002998  0.003726)
 91:   3183.11   0.001222    6.18  0.000120  (-0.001986  0.005968 -0.008960)
 92:   3193.80   0.000010    0.05  0.000001  (-0.000226 -0.000419 -0.000876)
 93:   3416.29   0.000466    2.35  0.000043  (-0.000569  0.006114 -0.002202)
 94:   3619.43   0.020379  102.99  0.001757  (-0.000559  0.034351 -0.024017)
 95:   3660.67   0.007955   40.20  0.000678  (-0.000791  0.001641  0.025977)

--------------------------
THERMOCHEMISTRY AT 298.15K
--------------------------

Temperature         ... 298.15 K
Pressure            ... 1.00 atm
Total Mass          ... 200.26 AMU

Throughout the following assumptions are being made:
  (1) The electronic state is orbitally nondegenerate
      but the spin degeneracy is treated
  (2) There are no thermally accessible electronically excited states
  (3) Hindered rotations indicated by low frequency modes are not
      treated as such but are treated as vibrations and this may
      cause some error
  (4) All equations used are the standard statistical mechanics
      equations for an ideal gas
  (5) All vibrations are strictly harmonic

freq.      34.80  E(vib)   ...       0.54
freq.      49.50  E(vib)   ...       0.52
freq.      66.20  E(vib)   ...       0.50
freq.      72.66  E(vib)   ...       0.49
freq.      86.90  E(vib)   ...       0.48
freq.     101.20  E(vib)   ...       0.46
freq.     107.86  E(vib)   ...       0.45
freq.     116.46  E(vib)   ...       0.44
freq.     116.98  E(vib)   ...       0.44
freq.     145.92  E(vib)   ...       0.41
freq.     150.31  E(vib)   ...       0.40
freq.     170.78  E(vib)   ...       0.38
freq.     212.55  E(vib)   ...       0.34
freq.     248.30  E(vib)   ...       0.31
freq.     300.57  E(vib)   ...       0.26
freq.     332.10  E(vib)   ...       0.24
freq.     356.19  E(vib)   ...       0.22
freq.     385.20  E(vib)   ...       0.20
freq.     392.77  E(vib)   ...       0.20
freq.     433.52  E(vib)   ...       0.17
freq.     494.78  E(vib)   ...       0.14
freq.     522.35  E(vib)   ...       0.13
freq.     550.76  E(vib)   ...       0.12
freq.     576.54  E(vib)   ...       0.11
freq.     637.43  E(vib)   ...       0.09
freq.     666.05  E(vib)   ...       0.08
freq.     699.65  E(vib)   ...       0.07
freq.     745.27  E(vib)   ...       0.06
freq.     787.76  E(vib)   ...       0.05
freq.     818.29  E(vib)   ...       0.05
freq.     888.08  E(vib)   ...       0.04
freq.     914.74  E(vib)   ...       0.03
freq.     950.20  E(vib)   ...       0.03
freq.    1006.62  E(vib)   ...       0.02
freq.    1020.70  E(vib)   ...       0.02
freq.    1028.71  E(vib)   ...       0.02
freq.    1057.71  E(vib)   ...       0.02
freq.    1066.20  E(vib)   ...       0.02
freq.    1072.08  E(vib)   ...       0.02
freq.    1078.87  E(vib)   ...       0.02
freq.    1096.77  E(vib)   ...       0.02
freq.    1098.33  E(vib)   ...       0.02
freq.    1142.21  E(vib)   ...       0.01
freq.    1159.18  E(vib)   ...       0.01
freq.    1182.67  E(vib)   ...       0.01
freq.    1217.21  E(vib)   ...       0.01
freq.    1221.22  E(vib)   ...       0.01
freq.    1250.88  E(vib)   ...       0.01
freq.    1265.70  E(vib)   ...       0.01
freq.    1278.37  E(vib)   ...       0.01
freq.    1295.50  E(vib)   ...       0.01
freq.    1323.18  E(vib)   ...       0.01
freq.    1336.48  E(vib)   ...       0.01
freq.    1341.95  E(vib)   ...       0.01
freq.    1378.53  E(vib)   ...       0.01
freq.    1388.97  E(vib)   ...       0.00
freq.    1400.17  E(vib)   ...       0.00
freq.    1411.47  E(vib)   ...       0.00
freq.    1419.50  E(vib)   ...       0.00
freq.    1450.53  E(vib)   ...       0.00
freq.    1476.63  E(vib)   ...       0.00
freq.    1484.24  E(vib)   ...       0.00
freq.    1486.92  E(vib)   ...       0.00
freq.    1489.09  E(vib)   ...       0.00
freq.    1494.88  E(vib)   ...       0.00
freq.    1505.22  E(vib)   ...       0.00
freq.    1508.39  E(vib)   ...       0.00
freq.    1511.60  E(vib)   ...       0.00
freq.    1548.92  E(vib)   ...       0.00
freq.    1590.57  E(vib)   ...       0.00
freq.    1775.67  E(vib)   ...       0.00
freq.    1789.91  E(vib)   ...       0.00
freq.    2997.70  E(vib)   ...       0.00
freq.    3051.63  E(vib)   ...       0.00
freq.    3058.90  E(vib)   ...       0.00
freq.    3067.93  E(vib)   ...       0.00
freq.    3076.14  E(vib)   ...       0.00
freq.    3079.06  E(vib)   ...       0.00
freq.    3088.88  E(vib)   ...       0.00
freq.    3089.06  E(vib)   ...       0.00
freq.    3098.98  E(vib)   ...       0.00
freq.    3114.48  E(vib)   ...       0.00
freq.    3131.23  E(vib)   ...       0.00
freq.    3143.82  E(vib)   ...       0.00
freq.    3171.71  E(vib)   ...       0.00
freq.    3183.11  E(vib)   ...       0.00
freq.    3193.80  E(vib)   ...       0.00
freq.    3416.29  E(vib)   ...       0.00
freq.    3619.43  E(vib)   ...       0.00
freq.    3660.67  E(vib)   ...       0.00

------------
INNER ENERGY
------------

The inner energy is: U= E(el) + E(ZPE) + E(vib) + E(rot) + E(trans)
    E(el)   - is the total energy from the electronic structure calculation
              = E(kin-el) + E(nuc-el) + E(el-el) + E(nuc-nuc)
    E(ZPE)  - the the zero temperature vibrational energy from the frequency calculation
    E(vib)  - the the finite temperature correction to E(ZPE) due to population
              of excited vibrational states
    E(rot)  - is the rotational thermal energy
    E(trans)- is the translational thermal energy

Summary of contributions to the inner energy U:
Electronic energy                ...   -668.44248738 Eh
Zero point energy                ...      0.27799846 Eh     174.45 kcal/mol
Thermal vibrational correction   ...      0.01402852 Eh       8.80 kcal/mol
Thermal rotational correction    ...      0.00141627 Eh       0.89 kcal/mol
Thermal translational correction ...      0.00141627 Eh       0.89 kcal/mol
-----------------------------------------------------------------------
Total thermal energy                   -668.14762785 Eh

Summary of corrections to the electronic energy:
(perhaps to be used in another calculation)
Total thermal correction                  0.01686107 Eh      10.58 kcal/mol
Non-thermal (ZPE) correction              0.27799846 Eh     174.45 kcal/mol
-----------------------------------------------------------------------
Total correction                          0.29485953 Eh     185.03 kcal/mol

--------
ENTHALPY
--------

The enthalpy is H = U + kB*T
                kB is Boltzmann's constant
Total free energy                 ...   -668.14762785 Eh
Thermal Enthalpy correction       ...      0.00094421 Eh       0.59 kcal/mol
-----------------------------------------------------------------------
Total Enthalpy                    ...   -668.14668364 Eh

Note: Only C1 symmetry has been detected, increase convergence thresholds
      if your molecule has a higher symmetry. Symmetry factor of 1.0 is
      used for the rotational entropy correction.

Note: Rotational entropy computed according to Herzberg
Infrared and Raman Spectra, Chapter V,1, Van Nostrand Reinhold, 1945
Point Group:  C1, Symmetry Number:   1
Rotational constants in cm-1:     0.020147     0.013985     0.009399

                             ****ORCA TERMINATED NORMALLY****
TOTAL RUN TIME: 0 days 0 hours 26 minutes 35 seconds 176 msec
