                         Program Version 5.0.4 -  RELEASE  -
|  1> ! B3LYP EPR-II OPT
|  2> %pal nprocs 16 end
|  3> *XYZFile 0 2 model.xyz
|  4>
|  5>                          ****END OF INPUT****
 Total Charge           Charge          ....    0
 Multiplicity           Mult            ....    2
 Number of Electrons    NEL             ....  109
FINAL SINGLE POINT ENERGY      -668.217185092867
FINAL SINGLE POINT ENERGY      -668.218603261319
FINAL SINGLE POINT ENERGY      -668.218677569115
FINAL SINGLE POINT ENERGY      -668.218707881639
FINAL SINGLE POINT ENERGY      -668.218725127458
FINAL SINGLE POINT ENERGY      -668.218739791360
FINAL SINGLE POINT ENERGY      -668.218755580498
FINAL SINGLE POINT ENERGY      -668.218768102376
FINAL SINGLE POINT ENERGY      -668.218783161932
FINAL SINGLE POINT ENERGY      -668.218796993735
FINAL SINGLE POINT ENERGY      -668.218864393481
FINAL SINGLE POINT ENERGY      -668.218878658912
FINAL SINGLE POINT ENERGY      -668.218890878668
FINAL SINGLE POINT ENERGY      -668.218930153018
FINAL SINGLE POINT ENERGY      -668.218962236293
FINAL SINGLE POINT ENERGY      -668.218977824545
FINAL SINGLE POINT ENERGY      -668.218988183640
FINAL SINGLE POINT ENERGY      -668.218996227115
FINAL SINGLE POINT ENERGY      -668.219000843618
                    ***********************HURRAY********************

CARTESIAN COORDINATES (ANGSTROEM)
---------------------------------
  N     -1.836986    0.779515    0.765584
  C     -1.498665   -0.110725   -0.332220
  C     -1.654939   -1.553918    0.191613
  O     -1.725883   -1.799499    1.397460
  C     -0.075052    0.147253   -0.899573
  C      1.067841   -0.089957    0.101560
  C      2.446202    0.242055   -0.498044
  C      3.602898    0.003656    0.500832
  N      4.920789    0.265334   -0.046681
  H     -2.214114    0.061484   -1.146024
  H     -0.059865    1.184258   -1.251100
  H      0.071386   -0.487277   -1.783633
  H      1.062334   -1.134567    0.438472
  H      0.900346    0.525669    0.993565
  H      2.464339    1.290401   -0.826587
  H      2.620269   -0.372843   -1.390247
  H      3.574967   -1.026974    0.874604
  H      3.450190    0.666620    1.373454
  H      4.869491    1.197353   -0.483288
  H     -1.899344    0.339718    1.675086
  C     -2.282996    2.055130    0.556082
  N     -1.675301   -2.516363   -0.774775
  H     -1.663016   -2.220927   -1.739197
  O     -2.341449    2.556841   -0.567594
  C     -2.692875    2.827868    1.806239
  H     -2.071978    3.724998    1.879298
  H     -3.729910    3.153219    1.687552
  H     -2.598468    2.248344    2.728444
  C     -1.786173   -3.941590   -0.481371
  H     -2.742782   -4.344039   -0.831750
  H     -0.969637   -4.497817   -0.952640
  H     -1.726549   -4.063967    0.600081

 Multiplicity           Mult            ....    2
 Number of Electrons    NEL             ....  109
 Basis Dimension        Dim             ....  364

ORBITAL ENERGIES
----------------
                 SPIN UP ORBITALS
  NO   OCC          E(Eh)            E(eV)
   0   1.0000     -19.126409      -520.4560
   1   1.0000     -19.103487      -519.8323
   2   1.0000     -14.376465      -391.2035
   3   1.0000     -14.353443      -390.5770
   4   1.0000     -14.344571      -390.3356
   5   1.0000     -10.307794      -280.4893
   6   1.0000     -10.291747      -280.0527
   7   1.0000     -10.243772      -278.7472
   8   1.0000     -10.228558      -278.3332
   9   1.0000     -10.213491      -277.9232
  10   1.0000     -10.196707      -277.4665
  11   1.0000     -10.194864      -277.4164
  12   1.0000     -10.190703      -277.3031
  13   1.0000     -10.188898      -277.2540
  14   1.0000      -1.049546       -28.5596
  15   1.0000      -1.025790       -27.9132
  16   1.0000      -0.935783       -25.4640
  17   1.0000      -0.920472       -25.0473
  18   1.0000      -0.883025       -24.0283
  19   1.0000      -0.805228       -21.9114
  20   1.0000      -0.764242       -20.7961
  21   1.0000      -0.730868       -19.8879
  22   1.0000      -0.714195       -19.4342
  23   1.0000      -0.669025       -18.2051
  24   1.0000      -0.619938       -16.8694
  25   1.0000      -0.601738       -16.3741
  26   1.0000      -0.597121       -16.2485
  27   1.0000      -0.568379       -15.4664
  28   1.0000      -0.541524       -14.7356
  29   1.0000      -0.489281       -13.3140
  30   1.0000      -0.486394       -13.2354
  31   1.0000      -0.475726       -12.9452
  32   1.0000      -0.471430       -12.8283
  33   1.0000      -0.461817       -12.5667
  34   1.0000      -0.452346       -12.3090
  35   1.0000      -0.446730       -12.1561
  36   1.0000      -0.435414       -11.8482
  37   1.0000      -0.431305       -11.7364
  38   1.0000      -0.409636       -11.1468
  39   1.0000      -0.405017       -11.0211
  40   1.0000      -0.403843       -10.9891
  41   1.0000      -0.395241       -10.7551
  42   1.0000      -0.392265       -10.6741
  43   1.0000      -0.379424       -10.3247
  44   1.0000      -0.369070       -10.0429
  45   1.0000      -0.367312        -9.9951
  46   1.0000      -0.345906        -9.4126
  47   1.0000      -0.342505        -9.3200
  48   1.0000      -0.338479        -9.2105
  49   1.0000      -0.282644        -7.6911
  50   1.0000      -0.274748        -7.4763
  51   1.0000      -0.273986        -7.4555
  52   1.0000      -0.264978        -7.2104
  53   1.0000      -0.252374        -6.8675
  54   1.0000      -0.249625        -6.7926
  55   0.0000       0.001719         0.0468
  56   0.0000       0.007274         0.1979
  57   0.0000       0.021124         0.5748
  58   0.0000       0.024269         0.6604
  59   0.0000       0.028799         0.7837

                 SPIN DOWN ORBITALS
  NO   OCC          E(Eh)            E(eV)
   0   1.0000     -19.126409      -520.4560
   1   1.0000     -19.103486      -519.8323
   2   1.0000     -14.376464      -391.2035
   3   1.0000     -14.353444      -390.5771
   4   1.0000     -14.326040      -389.8314
   5   1.0000     -10.307795      -280.4894
   6   1.0000     -10.291747      -280.0527
   7   1.0000     -10.243747      -278.7465
   8   1.0000     -10.228558      -278.3332
   9   1.0000     -10.214250      -277.9439
  10   1.0000     -10.196684      -277.4659
  11   1.0000     -10.193883      -277.3897
  12   1.0000     -10.190615      -277.3007
  13   1.0000     -10.188898      -277.2540
  14   1.0000      -1.049545       -28.5596
  15   1.0000      -1.025789       -27.9131
  16   1.0000      -0.935782       -25.4639
  17   1.0000      -0.920460       -25.0470
  18   1.0000      -0.851474       -23.1698
  19   1.0000      -0.802179       -21.8284
  20   1.0000      -0.760134       -20.6843
  21   1.0000      -0.730745       -19.8846
  22   1.0000      -0.710151       -19.3242
  23   1.0000      -0.664206       -18.0740
  24   1.0000      -0.615375       -16.7452
  25   1.0000      -0.601737       -16.3741
  26   1.0000      -0.593550       -16.1513
  27   1.0000      -0.568195       -15.4614
  28   1.0000      -0.541507       -14.7351
  29   1.0000      -0.486217       -13.2306
  30   1.0000      -0.485193       -13.2028
  31   1.0000      -0.475456       -12.9378
  32   1.0000      -0.470389       -12.7999
  33   1.0000      -0.460454       -12.5296
  34   1.0000      -0.451359       -12.2821
  35   1.0000      -0.441477       -12.0132
  36   1.0000      -0.434551       -11.8247
  37   1.0000      -0.426673       -11.6104
  38   1.0000      -0.407615       -11.0918
  39   1.0000      -0.404689       -11.0122
  40   1.0000      -0.399068       -10.8592
  41   1.0000      -0.394423       -10.7328
  42   1.0000      -0.389155       -10.5894
  43   1.0000      -0.375386       -10.2148
  44   1.0000      -0.367071        -9.9885
  45   1.0000      -0.364784        -9.9263
  46   1.0000      -0.344802        -9.3825
  47   1.0000      -0.339126        -9.2281
  48   1.0000      -0.337528        -9.1846
  49   1.0000      -0.274737        -7.4760
  50   1.0000      -0.273920        -7.4538
  51   1.0000      -0.263781        -7.1778
  52   1.0000      -0.252330        -6.8663
  53   1.0000      -0.249626        -6.7927
  54   0.0000      -0.089356        -2.4315
  55   0.0000       0.001759         0.0479
  56   0.0000       0.007306         0.1988
  57   0.0000       0.021236         0.5779
  58   0.0000       0.024296         0.6611

MULLIKEN ATOMIC CHARGES AND SPIN POPULATIONS
--------------------------------------------
   0 N :   -0.118905    0.000060
   1 C :   -0.126283    0.000657
   2 C :    0.089051    0.000119
   3 O :   -0.332041    0.000000
   4 C :   -0.278140    0.000103
   5 C :   -0.235174    0.005821
   6 C :   -0.301887    0.053705
   7 C :   -0.276640   -0.065980
   8 N :   -0.283702    0.971195
   9 H :    0.164128    0.000242
  10 H :    0.178745   -0.000030
  11 H :    0.131038    0.000134
  12 H :    0.148993   -0.000066
  13 H :    0.153839    0.000055
  14 H :    0.145753   -0.002521
  15 H :    0.155100   -0.000892
  16 H :    0.161187    0.003231
  17 H :    0.160949    0.065811
  18 H :    0.191269   -0.031680
  19 H :    0.252923    0.000000
  20 C :    0.169985    0.000041
  21 N :   -0.093432    0.000010
  22 H :    0.231040   -0.000002
  23 O :   -0.325726   -0.000005
  24 C :   -0.552799   -0.000009
  25 H :    0.184937    0.000003
  26 H :    0.186868    0.000001
  27 H :    0.149005   -0.000000
  28 C :   -0.457185   -0.000009
  29 H :    0.165686    0.000003
  30 H :    0.161119    0.000003
  31 H :    0.200299   -0.000000
Sum of atomic charges         :   -0.0000000

LOEWDIN ATOMIC CHARGES AND SPIN POPULATIONS
-------------------------------------------
   0 N :    0.063360    0.000037
   1 C :   -0.048178    0.000854
   2 C :   -0.093760    0.000008
   3 O :   -0.194264    0.000013
   4 C :   -0.057770    0.000966
   5 C :   -0.070441    0.003909
   6 C :   -0.084286    0.036617
   7 C :   -0.088211    0.008505
   8 N :   -0.066125    0.890895
   9 H :    0.066976    0.000119
  10 H :    0.058813   -0.000014
  11 H :    0.042922    0.000113
  12 H :    0.049281    0.000062
  13 H :    0.049129    0.000178
  14 H :    0.043471   -0.000064
  15 H :    0.046144   -0.000388
  16 H :    0.039985    0.001771
  17 H :    0.056203    0.048378
  18 H :    0.045803    0.007966
  19 H :    0.090545    0.000007
  20 C :   -0.104524    0.000015
  21 N :    0.041950    0.000037
  22 H :    0.079693    0.000002
  23 O :   -0.198111    0.000009
  24 C :   -0.042448   -0.000001
  25 H :    0.054007    0.000001
  26 H :    0.054788    0.000001
  27 H :    0.033776    0.000000
  28 C :    0.012014   -0.000001
  29 H :    0.032233    0.000002
  30 H :    0.031934    0.000002
  31 H :    0.055089    0.000000

  Mayer bond orders larger than 0.100000
B(  0-N ,  1-C ) :   1.0218 B(  0-N , 19-H ) :   0.8928 B(  0-N , 20-C ) :   1.2066
B(  1-C ,  2-C ) :   0.8993 B(  1-C ,  4-C ) :   0.9289 B(  1-C ,  9-H ) :   0.9723
B(  1-C , 23-O ) :   0.1436 B(  2-C ,  3-O ) :   1.8698 B(  2-C , 21-N ) :   1.1863
B(  4-C ,  5-C ) :   0.9630 B(  4-C , 10-H ) :   0.9638 B(  4-C , 11-H ) :   0.9758
B(  5-C ,  6-C ) :   0.9742 B(  5-C , 12-H ) :   0.9610 B(  5-C , 13-H ) :   0.9708
B(  6-C ,  7-C ) :   0.9460 B(  6-C , 14-H ) :   0.9664 B(  6-C , 15-H ) :   0.9687
B(  7-C ,  8-N ) :   1.0503 B(  7-C , 16-H ) :   0.9529 B(  7-C , 17-H ) :   0.9254
B(  8-N , 18-H ) :   0.9205 B( 20-C , 23-O ) :   1.8602 B( 20-C , 24-C ) :   0.8950
B( 21-N , 22-H ) :   0.9300 B( 21-N , 28-C ) :   0.9698 B( 24-C , 25-H ) :   0.9587
B( 24-C , 26-H ) :   0.9585 B( 24-C , 27-H ) :   0.9756 B( 28-C , 29-H ) :   0.9595
B( 28-C , 30-H ) :   0.9597 B( 28-C , 31-H ) :   0.9432

FINAL SINGLE POINT ENERGY      -668.219003010571

DIPOLE MOMENT
-------------
                                X             Y             Z
Electronic contribution:     -6.70224       1.24503       0.11602
Nuclear contribution   :      6.13536      -2.05579      -0.42976
                        -----------------------------------------
Total Dipole Moment    :     -0.56687      -0.81076      -0.31373
                        -----------------------------------------
Magnitude (a.u.)       :      1.03784
Magnitude (Debye)      :      2.63797

Rotational constants in cm-1:     0.019698     0.013332     0.009039
Rotational constants in MHz :   590.518406   399.676725   270.984480

                             ****ORCA TERMINATED NORMALLY****
TOTAL RUN TIME: 0 days 0 hours 14 minutes 54 seconds 398 msec
