                         Program Version 5.0.4 -  RELEASE  -
|  1> ! B3LYP EPR-II AUTOAUX
|  2> %pal nprocs 16 end
|  3> *XYZFile 1 2 opt.xyz
|  4> %EPRNMR
|  5>         GTENSOR   TRUE
|  6>         NUCLEI    = 9,10,11,12,13,14,20,30,31,32,33 {SHIFT, AISO, ADIP, AORB}
|  7>         ORI       GIAO
|  8> END
|  9>
| 10>                          ****END OF INPUT****

CARTESIAN COORDINATES (ANGSTROEM)
---------------------------------
  N     -7.695452    0.915880   -0.002031
  C     -6.407819    1.537824   -0.285496
  C     -5.640124    1.899505    1.004419
  O     -4.839114    2.865264    1.054681
  C     -6.470840    2.716802   -1.277992
  C     -7.233356    3.986645   -0.754306
  C     -6.565953    5.272404   -1.150673
  C     -5.609088    5.972053   -0.238561
  N     -4.306006    5.175794   -0.054107
  H     -6.721482    5.679625   -2.145827
  H     -6.015217    6.073015    0.773914
  H     -5.332288    6.960596   -0.609064
  H     -3.684180    5.641954    0.611527
  H     -3.807485    5.090979   -0.941929
  H     -8.441672    1.493786    0.360012
  C     -8.054549   -0.272154   -0.647139
  N     -5.821443    1.089553    2.054490
  H     -6.487887    0.338015    1.941109
  O     -7.239066   -0.912234   -1.294087
  H     -4.524453    4.190240    0.323065
  C     -5.084179    1.219289    3.314123
  H     -5.431998    2.086339    3.882980
  H     -5.244975    0.316617    3.903859
  H     -4.017254    1.334696    3.113259
  C     -9.497801   -0.712477   -0.467239
  H     -9.987405   -0.696974   -1.445482
  H     -9.504423   -1.747249   -0.116486
  H    -10.064772   -0.088929    0.228852
  H     -5.822496    0.740799   -0.763690
  H     -5.442821    2.975349   -1.547732
  H     -6.939174    2.357172   -2.197821
  H     -7.308601    3.948344    0.339848
  H     -8.255743    3.976152   -1.146750

 Total Charge           Charge          ....    1
 Multiplicity           Mult            ....    2
 Number of Electrons    NEL             ....  109
 Basis Dimension        Dim             ....  371

ORBITAL ENERGIES
----------------
                 SPIN UP ORBITALS
  NO   OCC          E(Eh)            E(eV)
   0   1.0000     -19.261605      -524.1349
   1   1.0000     -19.221799      -523.0517
   2   1.0000     -14.576977      -396.6597
   3   1.0000     -14.497274      -394.4909
   4   1.0000     -14.478219      -393.9724
   5   1.0000     -10.437400      -284.0161
   6   1.0000     -10.407396      -283.1996
   7   1.0000     -10.399194      -282.9764
   8   1.0000     -10.365868      -282.0696
   9   1.0000     -10.355661      -281.7919
  10   1.0000     -10.334256      -281.2094
  11   1.0000     -10.332093      -281.1506
  12   1.0000     -10.326582      -281.0006
  13   1.0000     -10.290264      -280.0123
  14   1.0000      -1.179175       -32.0870
  15   1.0000      -1.146693       -31.2031
  16   1.0000      -1.130318       -30.7575
  17   1.0000      -1.061826       -28.8938
  18   1.0000      -1.037369       -28.2282
  19   1.0000      -0.949062       -25.8253
  20   1.0000      -0.903684       -24.5905
  21   1.0000      -0.864358       -23.5204
  22   1.0000      -0.836986       -22.7755
  23   1.0000      -0.819307       -22.2945
  24   1.0000      -0.763125       -20.7657
  25   1.0000      -0.741159       -20.1680
  26   1.0000      -0.735544       -20.0152
  27   1.0000      -0.709611       -19.3095
  28   1.0000      -0.702219       -19.1083
  29   1.0000      -0.695615       -18.9286
  30   1.0000      -0.663063       -18.0429
  31   1.0000      -0.634322       -17.2608
  32   1.0000      -0.620759       -16.8917
  33   1.0000      -0.601734       -16.3740
  34   1.0000      -0.599328       -16.3085
  35   1.0000      -0.582253       -15.8439
  36   1.0000      -0.579089       -15.7578
  37   1.0000      -0.568824       -15.4785
  38   1.0000      -0.567389       -15.4394
  39   1.0000      -0.547483       -14.8978
  40   1.0000      -0.536742       -14.6055
  41   1.0000      -0.526441       -14.3252
  42   1.0000      -0.517801       -14.0901
  43   1.0000      -0.514582       -14.0025
  44   1.0000      -0.509675       -13.8690
  45   1.0000      -0.502590       -13.6762
  46   1.0000      -0.493034       -13.4161
  47   1.0000      -0.485361       -13.2073
  48   1.0000      -0.477440       -12.9918
  49   1.0000      -0.464854       -12.6493
  50   1.0000      -0.419166       -11.4061
  51   1.0000      -0.399409       -10.8685
  52   1.0000      -0.379426       -10.3247
  53   1.0000      -0.365042        -9.9333
  54   1.0000      -0.355028        -9.6608
  55   0.0000      -0.133380        -3.6295
  56   0.0000      -0.127737        -3.4759
  57   0.0000      -0.100078        -2.7233
  58   0.0000      -0.092566        -2.5189
  59   0.0000      -0.091446        -2.4884

                 SPIN DOWN ORBITALS
  NO   OCC          E(Eh)            E(eV)
   0   1.0000     -19.261600      -524.1348
   1   1.0000     -19.221790      -523.0515
   2   1.0000     -14.575119      -396.6092
   3   1.0000     -14.497256      -394.4904
   4   1.0000     -14.478183      -393.9714
   5   1.0000     -10.437408      -284.0163
   6   1.0000     -10.407390      -283.1995
   7   1.0000     -10.400042      -282.9995
   8   1.0000     -10.365717      -282.0655
   9   1.0000     -10.342121      -281.4234
  10   1.0000     -10.334257      -281.2094
  11   1.0000     -10.332878      -281.1719
  12   1.0000     -10.325131      -280.9611
  13   1.0000     -10.290265      -280.0123
  14   1.0000      -1.179107       -32.0851
  15   1.0000      -1.146656       -31.2021
  16   1.0000      -1.126867       -30.6636
  17   1.0000      -1.061749       -28.8917
  18   1.0000      -1.037185       -28.2232
  19   1.0000      -0.936461       -25.4824
  20   1.0000      -0.898083       -24.4381
  21   1.0000      -0.863111       -23.4865
  22   1.0000      -0.836945       -22.7744
  23   1.0000      -0.816988       -22.2314
  24   1.0000      -0.755541       -20.5593
  25   1.0000      -0.738916       -20.1069
  26   1.0000      -0.732076       -19.9208
  27   1.0000      -0.705918       -19.2090
  28   1.0000      -0.700598       -19.0642
  29   1.0000      -0.690238       -18.7823
  30   1.0000      -0.662675       -18.0323
  31   1.0000      -0.627535       -17.0761
  32   1.0000      -0.618208       -16.8223
  33   1.0000      -0.599370       -16.3097
  34   1.0000      -0.597931       -16.2705
  35   1.0000      -0.579943       -15.7810
  36   1.0000      -0.578161       -15.7325
  37   1.0000      -0.566637       -15.4190
  38   1.0000      -0.565054       -15.3759
  39   1.0000      -0.546251       -14.8642
  40   1.0000      -0.534481       -14.5440
  41   1.0000      -0.523947       -14.2573
  42   1.0000      -0.517574       -14.0839
  43   1.0000      -0.513727       -13.9792
  44   1.0000      -0.507246       -13.8029
  45   1.0000      -0.501041       -13.6340
  46   1.0000      -0.490734       -13.3536
  47   1.0000      -0.481169       -13.0933
  48   1.0000      -0.475619       -12.9423
  49   1.0000      -0.463551       -12.6139
  50   1.0000      -0.418678       -11.3928
  51   1.0000      -0.399220       -10.8633
  52   1.0000      -0.378277       -10.2934
  53   1.0000      -0.364268        -9.9122
  54   0.0000      -0.220178        -5.9914
  55   0.0000      -0.131154        -3.5689
  56   0.0000      -0.123698        -3.3660
  57   0.0000      -0.099231        -2.7002
  58   0.0000      -0.092185        -2.5085

MULLIKEN ATOMIC CHARGES AND SPIN POPULATIONS
--------------------------------------------
   0 N :   -0.184505    0.002093
   1 C :   -0.088439    0.002047
   2 C :    0.080504    0.002838
   3 O :   -0.364283   -0.000766
   4 C :   -0.286831    0.056796
   5 C :   -0.286870   -0.060818
   6 C :   -0.093208    0.972165
   7 C :   -0.287868   -0.026946
   8 N :   -0.381278    0.052695
   9 H :    0.166884   -0.046105
  10 H :    0.208248    0.021951
  11 H :    0.203718    0.001386
  12 H :    0.311844    0.006397
  13 H :    0.313120   -0.001496
  14 H :    0.238598   -0.000213
  15 C :    0.187121    0.000497
  16 N :   -0.066502    0.000748
  17 H :    0.265115   -0.000011
  18 O :   -0.262891    0.000351
  19 H :    0.337080   -0.005441
  20 C :   -0.425320   -0.000113
  21 H :    0.182972    0.000054
  22 H :    0.170927   -0.000000
  23 H :    0.190576    0.000036
  24 C :   -0.538919   -0.000085
  25 H :    0.201743    0.000062
  26 H :    0.204307    0.000006
  27 H :    0.147803    0.000009
  28 H :    0.214616    0.001351
  29 H :    0.139432   -0.003654
  30 H :    0.179563   -0.000318
  31 H :    0.149215    0.008011
  32 H :    0.173528    0.016474
Sum of atomic charges         :    1.0000000

LOEWDIN ATOMIC CHARGES AND SPIN POPULATIONS
-------------------------------------------
   0 N :    0.028068    0.001488
   1 C :   -0.047967    0.006013
   2 C :   -0.066667    0.000187
   3 O :   -0.211403    0.000407
   4 C :   -0.038022    0.052234
   5 C :   -0.073766    0.007599
   6 C :   -0.019313    0.797457
   7 C :    0.001488    0.027858
   8 N :    0.300566    0.054585
   9 H :    0.052392    0.005258
  10 H :    0.065515    0.017978
  11 H :    0.057493    0.000324
  12 H :    0.109111    0.004837
  13 H :    0.109027    0.001354
  14 H :    0.084006    0.000073
  15 C :   -0.094253    0.000364
  16 N :    0.086468    0.000700
  17 H :    0.096496   -0.000008
  18 O :   -0.149169    0.000371
  19 H :    0.092188    0.000353
  20 C :    0.031049   -0.000003
  21 H :    0.041897    0.000034
  22 H :    0.044237   -0.000001
  23 H :    0.048092    0.000035
  24 C :   -0.029628    0.000006
  25 H :    0.064822    0.000035
  26 H :    0.064730    0.000009
  27 H :    0.035674    0.000008
  28 H :    0.094379    0.001441
  29 H :    0.046235    0.000387
  30 H :    0.060728    0.000360
  31 H :    0.055679    0.005675
  32 H :    0.059845    0.012581

  Mayer bond orders larger than 0.100000
B(  0-N ,  1-C ) :   1.0097 B(  0-N , 14-H ) :   0.9227 B(  0-N , 15-C ) :   1.0957
B(  1-C ,  2-C ) :   0.9335 B(  1-C ,  4-C ) :   0.9569 B(  1-C , 18-O ) :   0.1331
B(  1-C , 28-H ) :   0.9137 B(  2-C ,  3-O ) :   1.6588 B(  2-C , 16-N ) :   1.3598
B(  3-O , 19-H ) :   0.2050 B(  4-C ,  5-C ) :   0.9226 B(  4-C , 29-H ) :   0.9666
B(  4-C , 30-H ) :   0.9660 B(  5-C ,  6-C ) :   1.0242 B(  5-C , 31-H ) :   0.9699
B(  5-C , 32-H ) :   0.9521 B(  6-C ,  7-C ) :   1.0202 B(  6-C ,  9-H ) :   0.9703
B(  7-C ,  8-N ) :   0.9031 B(  7-C , 10-H ) :   0.9460 B(  7-C , 11-H ) :   0.9517
B(  8-N , 12-H ) :   0.8999 B(  8-N , 13-H ) :   0.9018 B(  8-N , 19-H ) :   0.7161
B( 15-C , 18-O ) :   1.9348 B( 15-C , 24-C ) :   0.9162 B( 16-N , 17-H ) :   0.9071
B( 16-N , 20-C ) :   0.9568 B( 20-C , 21-H ) :   0.9505 B( 20-C , 22-H ) :   0.9587
B( 20-C , 23-H ) :   0.9494 B( 24-C , 25-H ) :   0.9462 B( 24-C , 26-H ) :   0.9480
B( 24-C , 27-H ) :   0.9725

FINAL SINGLE POINT ENERGY      -668.616307659543

DIPOLE MOMENT
-------------
                                X             Y             Z
Electronic contribution:      1.74973      -4.75710      -1.44965
Nuclear contribution   :     -0.77639       8.30757       2.27150
                        -----------------------------------------
Total Dipole Moment    :      0.97334       3.55047       0.82185
                        -----------------------------------------
Magnitude (a.u.)       :      3.77209
Magnitude (Debye)      :      9.58789

Rotational constants in cm-1:     0.028669     0.013617     0.010295
Rotational constants in MHz :   859.469821   408.228366   308.643980

CHEMICAL SHIELDING SUMMARY (ppm)  --  Orbital contribution
----------------------------------------------------------

  Nucleus  Element    Isotropic     Anisotropy
  -------  -------  ------------   ------------
      8       N          207.066         19.872
      9       H           25.963          4.417
     10       H           27.964          6.790
     11       H           27.831          8.388
     12       H           28.170         14.716
     13       H           28.807         11.603
     19       H           17.515         29.622
     29       H           30.446          5.315
     30       H           29.757          6.486
     31       H           30.081          2.071
     32       H           28.893          7.686

                             ****ORCA TERMINATED NORMALLY****
TOTAL RUN TIME: 0 days 0 hours 6 minutes 4 seconds 701 msec
