                         Program Version 5.0.4 -  RELEASE  -
|  1> ! M062X def2-TZVP OPT FREQ
|  2> %pal nprocs 16 end
|  3> *XYZFile 1 2 opt.xyz
|  4>
|  5>                          ****END OF INPUT****
 Total Charge           Charge          ....    1
 Multiplicity           Mult            ....    2
 Number of Electrons    NEL             ....  109
FINAL SINGLE POINT ENERGY      -668.834114991372
FINAL SINGLE POINT ENERGY      -668.824992621751
FINAL SINGLE POINT ENERGY      -668.825121716137
FINAL SINGLE POINT ENERGY      -668.832816746313
FINAL SINGLE POINT ENERGY      -668.836510226757
FINAL SINGLE POINT ENERGY      -668.835406631985
FINAL SINGLE POINT ENERGY      -668.837265064236
FINAL SINGLE POINT ENERGY      -668.837356114598
FINAL SINGLE POINT ENERGY      -668.837410640869
FINAL SINGLE POINT ENERGY      -668.837420105905
FINAL SINGLE POINT ENERGY      -668.837537897174
FINAL SINGLE POINT ENERGY      -668.837596197442
FINAL SINGLE POINT ENERGY      -668.837609335572
FINAL SINGLE POINT ENERGY      -668.837616168519
FINAL SINGLE POINT ENERGY      -668.837621041981
FINAL SINGLE POINT ENERGY      -668.837628075064
FINAL SINGLE POINT ENERGY      -668.837634156956
FINAL SINGLE POINT ENERGY      -668.837638979261
FINAL SINGLE POINT ENERGY      -668.837641038184
                    ***********************HURRAY********************

CARTESIAN COORDINATES (ANGSTROEM)
---------------------------------
  N     -7.604096    0.878542    0.054002
  C     -6.319219    1.482618   -0.223343
  C     -5.604288    1.879472    1.063399
  O     -4.846081    2.860654    1.113013
  C     -6.377306    2.636826   -1.218810
  C     -7.205949    3.843565   -0.707816
  C     -6.650524    5.152556   -1.144947
  C     -5.700171    5.888210   -0.277730
  N     -4.398981    5.121319   -0.114591
  H     -6.871964    5.544083   -2.127558
  H     -6.087470    5.997696    0.738187
  H     -5.453660    6.872143   -0.669081
  H     -3.758029    5.609966    0.511998
  H     -3.934050    5.011048   -1.015825
  H     -8.266304    1.384002    0.622877
  C     -8.093496   -0.080049   -0.817908
  N     -5.793341    1.105987    2.121319
  H     -6.394011    0.303252    2.009742
  O     -7.401574   -0.519985   -1.702671
  H     -4.590780    4.146275    0.303235
  C     -5.070395    1.311242    3.367151
  H     -5.238300    2.323150    3.730580
  H     -5.434125    0.598643    4.100899
  H     -4.001723    1.166369    3.215167
  C     -9.506275   -0.536271   -0.570370
  H    -10.097760   -0.321707   -1.459554
  H     -9.498112   -1.616894   -0.436388
  H     -9.966911   -0.066565    0.296411
  H     -5.714422    0.689756   -0.675476
  H     -5.352556    2.934005   -1.447673
  H     -6.794595    2.253461   -2.149681
  H     -7.237749    3.827697    0.387729
  H     -8.234899    3.743609   -1.056564

 Multiplicity           Mult            ....    2
 Number of Electrons    NEL             ....  109
 Basis Dimension        Dim             ....  548

ORBITAL ENERGIES
----------------
                 SPIN UP ORBITALS
  NO   OCC          E(Eh)            E(eV)
   0   1.0000     -19.751929      -537.4773
   1   1.0000     -19.704645      -536.1907
   2   1.0000     -14.995855      -408.0580
   3   1.0000     -14.916820      -405.9073
   4   1.0000     -14.895058      -405.3151
   5   1.0000     -10.790965      -293.6371
   6   1.0000     -10.755516      -292.6725
   7   1.0000     -10.749779      -292.5164
   8   1.0000     -10.717565      -291.6398
   9   1.0000     -10.703505      -291.2572
  10   1.0000     -10.690025      -290.8904
  11   1.0000     -10.680357      -290.6273
  12   1.0000     -10.674633      -290.4715
  13   1.0000     -10.640660      -289.5471
  14   1.0000      -1.318310       -35.8730
  15   1.0000      -1.281592       -34.8739
  16   1.0000      -1.245900       -33.9027
  17   1.0000      -1.183695       -32.2100
  18   1.0000      -1.155343       -31.4385
  19   1.0000      -1.057529       -28.7768
  20   1.0000      -1.009157       -27.4606
  21   1.0000      -0.966006       -26.2864
  22   1.0000      -0.937941       -25.5227
  23   1.0000      -0.916171       -24.9303
  24   1.0000      -0.853713       -23.2307
  25   1.0000      -0.831983       -22.6394
  26   1.0000      -0.823575       -22.4106
  27   1.0000      -0.794343       -21.6152
  28   1.0000      -0.786702       -21.4072
  29   1.0000      -0.777036       -21.1442
  30   1.0000      -0.751307       -20.4441
  31   1.0000      -0.711551       -19.3623
  32   1.0000      -0.700655       -19.0658
  33   1.0000      -0.688724       -18.7411
  34   1.0000      -0.678251       -18.4561
  35   1.0000      -0.663928       -18.0664
  36   1.0000      -0.659395       -17.9431
  37   1.0000      -0.648380       -17.6433
  38   1.0000      -0.647549       -17.6207
  39   1.0000      -0.626514       -17.0483
  40   1.0000      -0.609692       -16.5906
  41   1.0000      -0.599075       -16.3017
  42   1.0000      -0.594339       -16.1728
  43   1.0000      -0.587764       -15.9939
  44   1.0000      -0.584456       -15.9038
  45   1.0000      -0.571641       -15.5552
  46   1.0000      -0.564270       -15.3546
  47   1.0000      -0.557425       -15.1683
  48   1.0000      -0.541131       -14.7249
  49   1.0000      -0.532577       -14.4921
  50   1.0000      -0.497561       -13.5393
  51   1.0000      -0.471364       -12.8265
  52   1.0000      -0.453765       -12.3476
  53   1.0000      -0.440075       -11.9751
  54   1.0000      -0.409117       -11.1326
  55   0.0000      -0.100088        -2.7235
  56   0.0000      -0.091560        -2.4915
  57   0.0000      -0.066145        -1.7999
  58   0.0000      -0.054668        -1.4876
  59   0.0000      -0.052671        -1.4333

                 SPIN DOWN ORBITALS
  NO   OCC          E(Eh)            E(eV)
   0   1.0000     -19.751929      -537.4773
   1   1.0000     -19.704643      -536.1906
   2   1.0000     -14.994452      -408.0198
   3   1.0000     -14.916811      -405.9071
   4   1.0000     -14.895038      -405.3146
   5   1.0000     -10.790969      -293.6372
   6   1.0000     -10.755515      -292.6724
   7   1.0000     -10.750456      -292.5348
   8   1.0000     -10.717476      -291.6373
   9   1.0000     -10.696853      -291.0762
  10   1.0000     -10.690025      -290.8904
  11   1.0000     -10.680991      -290.6445
  12   1.0000     -10.673647      -290.4447
  13   1.0000     -10.640661      -289.5471
  14   1.0000      -1.318265       -35.8718
  15   1.0000      -1.281565       -34.8732
  16   1.0000      -1.241884       -33.7934
  17   1.0000      -1.183610       -32.2077
  18   1.0000      -1.155149       -31.4332
  19   1.0000      -1.043937       -28.4070
  20   1.0000      -1.001833       -27.2612
  21   1.0000      -0.964250       -26.2386
  22   1.0000      -0.937892       -25.5213
  23   1.0000      -0.913608       -24.8605
  24   1.0000      -0.846012       -23.0212
  25   1.0000      -0.829795       -22.5799
  26   1.0000      -0.816575       -22.2201
  27   1.0000      -0.791891       -21.5484
  28   1.0000      -0.784216       -21.3396
  29   1.0000      -0.769409       -20.9367
  30   1.0000      -0.750833       -20.4312
  31   1.0000      -0.704347       -19.1663
  32   1.0000      -0.696418       -18.9505
  33   1.0000      -0.686312       -18.6755
  34   1.0000      -0.674710       -18.3598
  35   1.0000      -0.662158       -18.0182
  36   1.0000      -0.657614       -17.8946
  37   1.0000      -0.645855       -17.5746
  38   1.0000      -0.644337       -17.5333
  39   1.0000      -0.623896       -16.9771
  40   1.0000      -0.606678       -16.5085
  41   1.0000      -0.596337       -16.2272
  42   1.0000      -0.593446       -16.1485
  43   1.0000      -0.587269       -15.9804
  44   1.0000      -0.582805       -15.8589
  45   1.0000      -0.570158       -15.5148
  46   1.0000      -0.559932       -15.2365
  47   1.0000      -0.552533       -15.0352
  48   1.0000      -0.539338       -14.6761
  49   1.0000      -0.529852       -14.4180
  50   1.0000      -0.496795       -13.5185
  51   1.0000      -0.471223       -12.8226
  52   1.0000      -0.452504       -12.3133
  53   1.0000      -0.438983       -11.9453
  54   0.0000      -0.177980        -4.8431
  55   0.0000      -0.098701        -2.6858
  56   0.0000      -0.089730        -2.4417
  57   0.0000      -0.069107        -1.8805
  58   0.0000      -0.059788        -1.6269

MULLIKEN ATOMIC CHARGES AND SPIN POPULATIONS
--------------------------------------------
   0 N :   -0.461033   -0.000430
   1 C :   -0.124438    0.009551
   2 C :    0.459715    0.001608
   3 O :   -0.544776   -0.000055
   4 C :   -0.314637    0.040699
   5 C :   -0.363889   -0.073466
   6 C :   -0.186225    1.012073
   7 C :   -0.230098   -0.051554
   8 N :   -0.385120    0.046781
   9 H :    0.207672   -0.037751
  10 H :    0.218874    0.026673
  11 H :    0.201332    0.005308
  12 H :    0.313881    0.008129
  13 H :    0.312635   -0.000750
  14 H :    0.264821   -0.000347
  15 C :    0.404335    0.000249
  16 N :   -0.294840    0.000747
  17 H :    0.279032   -0.000024
  18 O :   -0.349374    0.000292
  19 H :    0.363223   -0.009850
  20 C :   -0.287491   -0.000066
  21 H :    0.159312    0.000037
  22 H :    0.164189    0.000002
  23 H :    0.173306    0.000036
  24 C :   -0.450550   -0.000011
  25 H :    0.178327    0.000058
  26 H :    0.182413    0.000018
  27 H :    0.131035    0.000018
  28 H :    0.224528    0.000893
  29 H :    0.170724   -0.003555
  30 H :    0.213211    0.000379
  31 H :    0.178345    0.008522
  32 H :    0.191563    0.015786
Sum of atomic charges         :    1.0000000

LOEWDIN ATOMIC CHARGES AND SPIN POPULATIONS
-------------------------------------------
   0 N :    0.111677    0.001208
   1 C :   -0.256106    0.006033
   2 C :   -0.404456    0.000339
   3 O :    0.018623    0.000125
   4 C :   -0.222152    0.040795
   5 C :   -0.267738    0.051699
   6 C :   -0.110684    0.739827
   7 C :   -0.268805    0.078433
   8 N :    0.126736    0.039962
   9 H :    0.144967   -0.001752
  10 H :    0.156020    0.015859
  11 H :    0.150544   -0.000027
  12 H :    0.202235    0.004868
  13 H :    0.199635    0.003124
  14 H :    0.186893    0.000024
  15 C :   -0.467002    0.000535
  16 N :    0.140430    0.000416
  17 H :    0.201651   -0.000002
  18 O :    0.101659    0.000226
  19 H :    0.184634    0.000750
  20 C :   -0.276676    0.000027
  21 H :    0.126139    0.000013
  22 H :    0.128604    0.000001
  23 H :    0.128425    0.000020
  24 C :   -0.252604    0.000034
  25 H :    0.148160    0.000031
  26 H :    0.150167    0.000010
  27 H :    0.124432    0.000002
  28 H :    0.190078    0.000896
  29 H :    0.139243    0.001616
  30 H :    0.159202    0.000224
  31 H :    0.150020    0.005305
  32 H :    0.156049    0.009381

  Mayer bond orders larger than 0.100000
B(  0-N ,  1-C ) :   0.8445 B(  0-N , 14-H ) :   0.8955 B(  0-N , 15-C ) :   1.1038
B(  1-C ,  2-C ) :   0.9849 B(  1-C ,  4-C ) :   0.8958 B(  1-C , 28-H ) :   0.9397
B(  2-C ,  3-O ) :   1.5848 B(  2-C , 16-N ) :   1.3688 B(  3-O , 19-H ) :   0.1845
B(  4-C ,  5-C ) :   0.7865 B(  4-C , 29-H ) :   1.0039 B(  4-C , 30-H ) :   0.9567
B(  5-C ,  6-C ) :   0.9844 B(  5-C , 31-H ) :   0.9823 B(  5-C , 32-H ) :   0.9498
B(  6-C ,  7-C ) :   0.9879 B(  6-C ,  9-H ) :   0.9614 B(  7-C ,  8-N ) :   0.8164
B(  7-C , 10-H ) :   0.9632 B(  7-C , 11-H ) :   0.9713 B(  8-N , 12-H ) :   0.8882
B(  8-N , 13-H ) :   0.8868 B(  8-N , 19-H ) :   0.7335 B( 15-C , 18-O ) :   1.9599
B( 15-C , 24-C ) :   0.9193 B( 16-N , 17-H ) :   0.8949 B( 16-N , 20-C ) :   0.8970
B( 20-C , 21-H ) :   0.9651 B( 20-C , 22-H ) :   0.9602 B( 20-C , 23-H ) :   0.9666
B( 24-C , 25-H ) :   0.9474 B( 24-C , 26-H ) :   0.9497 B( 24-C , 27-H ) :   0.9884

FINAL SINGLE POINT ENERGY      -668.837649145988

DIPOLE MOMENT
-------------
                                X             Y             Z
Electronic contribution:      1.57907      -4.46762      -1.88170
Nuclear contribution   :     -0.51868       7.67085       2.98364
                        -----------------------------------------
Total Dipole Moment    :      1.06039       3.20323       1.10194
                        -----------------------------------------
Magnitude (a.u.)       :      3.54956
Magnitude (Debye)      :      9.02226

VIBRATIONAL FREQUENCIES
-----------------------

Scaling factor for frequencies =  1.000000000  (already applied!)

   0:         0.00 cm**-1
   1:         0.00 cm**-1
   2:         0.00 cm**-1
   3:         0.00 cm**-1
   4:         0.00 cm**-1
   5:         0.00 cm**-1
   6:       -64.33 cm**-1 ***imaginary mode***
   7:        23.12 cm**-1
   8:        49.95 cm**-1
   9:        70.99 cm**-1
  10:        80.29 cm**-1
  11:       105.85 cm**-1
  12:       118.23 cm**-1
  13:       134.55 cm**-1
  14:       169.75 cm**-1
  15:       195.69 cm**-1
  16:       200.28 cm**-1
  17:       221.68 cm**-1
  18:       254.88 cm**-1
  19:       281.96 cm**-1
  20:       320.96 cm**-1
  21:       333.89 cm**-1
  22:       365.33 cm**-1
  23:       384.62 cm**-1
  24:       410.79 cm**-1
  25:       443.78 cm**-1
  26:       463.82 cm**-1
  27:       493.63 cm**-1
  28:       538.82 cm**-1
  29:       585.59 cm**-1
  30:       603.96 cm**-1
  31:       646.38 cm**-1
  32:       656.21 cm**-1
  33:       684.22 cm**-1
  34:       785.64 cm**-1
  35:       813.65 cm**-1
  36:       875.04 cm**-1
  37:       882.74 cm**-1
  38:       908.49 cm**-1
  39:       925.67 cm**-1
  40:       970.41 cm**-1
  41:       991.20 cm**-1
  42:      1007.34 cm**-1
  43:      1038.00 cm**-1
  44:      1053.85 cm**-1
  45:      1061.24 cm**-1
  46:      1088.35 cm**-1
  47:      1106.52 cm**-1
  48:      1140.30 cm**-1
  49:      1155.37 cm**-1
  50:      1172.91 cm**-1
  51:      1180.23 cm**-1
  52:      1203.41 cm**-1
  53:      1233.83 cm**-1
  54:      1253.99 cm**-1
  55:      1276.16 cm**-1
  56:      1291.15 cm**-1
  57:      1311.19 cm**-1
  58:      1339.33 cm**-1
  59:      1352.42 cm**-1
  60:      1359.66 cm**-1
  61:      1385.41 cm**-1
  62:      1389.67 cm**-1
  63:      1407.54 cm**-1
  64:      1425.32 cm**-1
  65:      1459.97 cm**-1
  66:      1471.56 cm**-1
  67:      1487.15 cm**-1
  68:      1490.99 cm**-1
  69:      1494.56 cm**-1
  70:      1496.69 cm**-1
  71:      1503.75 cm**-1
  72:      1511.33 cm**-1
  73:      1515.85 cm**-1
  74:      1555.83 cm**-1
  75:      1608.81 cm**-1
  76:      1649.54 cm**-1
  77:      1685.25 cm**-1
  78:      1696.19 cm**-1
  79:      1823.98 cm**-1
  80:      2439.28 cm**-1
  81:      3049.41 cm**-1
  82:      3079.35 cm**-1
  83:      3085.87 cm**-1
  84:      3091.34 cm**-1
  85:      3094.62 cm**-1
  86:      3099.44 cm**-1
  87:      3117.88 cm**-1
  88:      3148.52 cm**-1
  89:      3168.51 cm**-1
  90:      3170.46 cm**-1
  91:      3176.34 cm**-1
  92:      3184.20 cm**-1
  93:      3206.21 cm**-1
  94:      3230.85 cm**-1
  95:      3461.04 cm**-1
  96:      3530.19 cm**-1
  97:      3623.03 cm**-1
  98:      3628.53 cm**-1

IR SPECTRUM
-----------

 Mode   freq       eps      Int      T**2         TX        TY        TZ
       cm**-1   L/(mol*cm) km/mol    a.u.
----------------------------------------------------------------------------
  7:     23.12   0.001109    5.60  0.014965  (-0.046806  0.081559 -0.078248)
  8:     49.95   0.000455    2.30  0.002840  ( 0.011271 -0.051857  0.004830)
  9:     70.99   0.001295    6.54  0.005692  ( 0.024149 -0.069031 -0.018531)
 10:     80.29   0.001940    9.80  0.007540  (-0.035374 -0.003647 -0.079219)
 11:    105.85   0.001972    9.97  0.005815  ( 0.050770 -0.053293 -0.019931)
 12:    118.23   0.000373    1.88  0.000983  (-0.002960  0.013586  0.028106)
 13:    134.55   0.001210    6.12  0.002807  (-0.047021 -0.022451 -0.009599)
 14:    169.75   0.002688   13.59  0.004942  ( 0.047999  0.050798 -0.007604)
 15:    195.69   0.006087   30.76  0.009707  ( 0.017514  0.083182 -0.049811)
 16:    200.28   0.002250   11.37  0.003506  ( 0.038887  0.044121 -0.006868)
 17:    221.68   0.001804    9.12  0.002539  (-0.008381  0.045917 -0.018992)
 18:    254.88   0.003510   17.74  0.004297  ( 0.010035  0.064700 -0.003252)
 19:    281.96   0.001227    6.20  0.001358  (-0.034035 -0.007110  0.012222)
 20:    320.96   0.001039    5.25  0.001010  ( 0.011558  0.017156  0.024127)
 21:    333.89   0.009751   49.28  0.009114  (-0.020457 -0.086312  0.035291)
 22:    365.33   0.003628   18.33  0.003099  ( 0.000770  0.054207  0.012650)
 23:    384.62   0.004624   23.37  0.003752  (-0.003862  0.035481 -0.049782)
 24:    410.79   0.001646    8.32  0.001251  ( 0.007091 -0.033945 -0.006936)
 25:    443.78   0.011839   59.83  0.008325  ( 0.070244 -0.016235  0.055921)
 26:    463.82   0.013296   67.19  0.008946  (-0.007159  0.035902 -0.087209)
 27:    493.63   0.002460   12.43  0.001555  ( 0.013115  0.026298 -0.026294)
 28:    538.82   0.001141    5.76  0.000661  ( 0.009448 -0.011224 -0.021104)
 29:    585.59   0.004206   21.26  0.002241  (-0.023096 -0.028023 -0.030376)
 30:    603.96   0.004208   21.27  0.002174  (-0.036766  0.027270 -0.008888)
 31:    646.38   0.002112   10.67  0.001020  ( 0.017615 -0.026134  0.005142)
 32:    656.21   0.007272   36.75  0.003458  (-0.046226  0.001335  0.036328)
 33:    684.22   0.003071   15.52  0.001401  (-0.025176  0.015168  0.023165)
 34:    785.64   0.002596   13.12  0.001031  ( 0.009401  0.020739  0.022639)
 35:    813.65   0.001798    9.09  0.000690  (-0.012237  0.017166 -0.015655)
 36:    875.04   0.002860   14.46  0.001020  ( 0.024140  0.020898  0.000811)
 37:    882.74   0.005144   26.00  0.001819  (-0.014819  0.022366 -0.033148)
 38:    908.49   0.001228    6.21  0.000422  ( 0.020168  0.002388  0.003086)
 39:    925.67   0.001077    5.44  0.000363  (-0.008104  0.000519  0.017239)
 40:    970.41   0.000428    2.16  0.000138  (-0.011114  0.003463  0.001424)
 41:    991.20   0.000897    4.53  0.000282  ( 0.009132  0.005251 -0.013088)
 42:   1007.34   0.001412    7.13  0.000437  (-0.008117 -0.018811 -0.004199)
 43:   1038.00   0.001577    7.97  0.000474  (-0.004236 -0.004715  0.020830)
 44:   1053.85   0.000961    4.86  0.000285  ( 0.007990  0.012949  0.007294)
 45:   1061.24   0.000939    4.75  0.000276  (-0.006942  0.011012 -0.010328)
 46:   1088.35   0.004954   25.04  0.001421  (-0.004498 -0.035593 -0.011552)
 47:   1106.52   0.000513    2.59  0.000145  (-0.011637 -0.002018 -0.002264)
 48:   1140.30   0.002185   11.04  0.000598  (-0.020414 -0.011763 -0.006535)
 49:   1155.37   0.000494    2.50  0.000133  (-0.000748  0.003099 -0.011103)
 50:   1172.91   0.000785    3.97  0.000209  (-0.002971  0.001492 -0.014061)
 51:   1180.23   0.002372   11.99  0.000627  (-0.016422 -0.018726 -0.002599)
 52:   1203.41   0.002129   10.76  0.000552  ( 0.001277  0.014225 -0.018654)
 53:   1233.83   0.004139   20.92  0.001047  ( 0.012327  0.018300  0.023664)
 54:   1253.99   0.028542  144.24  0.007103  (-0.050958 -0.061781 -0.026253)
 55:   1276.16   0.000692    3.49  0.000169  (-0.006700  0.006429 -0.009105)
 56:   1291.15   0.004677   23.64  0.001130  ( 0.022653  0.023821  0.007057)
 57:   1311.19   0.003150   15.92  0.000750  ( 0.010059  0.025011 -0.004793)
 58:   1339.33   0.000120    0.61  0.000028  ( 0.000168 -0.000217  0.005284)
 59:   1352.42   0.001109    5.60  0.000256  (-0.006872 -0.007873 -0.012107)
 60:   1359.66   0.004801   24.26  0.001102  ( 0.019873  0.020302  0.017168)
 61:   1385.41   0.001053    5.32  0.000237  ( 0.008817 -0.007211  0.010366)
 62:   1389.67   0.001218    6.16  0.000274  ( 0.000641  0.002719  0.016304)
 63:   1407.54   0.009670   48.87  0.002144  (-0.035635 -0.026942 -0.012172)
 64:   1425.32   0.001686    8.52  0.000369  ( 0.005519 -0.012518  0.013493)
 65:   1459.97   0.008600   43.46  0.001838  (-0.004493 -0.033137  0.026832)
 66:   1471.56   0.001541    7.79  0.000327  (-0.007524  0.013664 -0.009131)
 67:   1487.15   0.006214   31.40  0.001304  ( 0.002040  0.023950  0.026947)
 68:   1490.99   0.000834    4.21  0.000175  ( 0.006282  0.000444  0.011613)
 69:   1494.56   0.002762   13.96  0.000577  (-0.016025  0.011195  0.013946)
 70:   1496.69   0.001937    9.79  0.000404  (-0.010575 -0.016063  0.005835)
 71:   1503.75   0.003435   17.36  0.000713  (-0.015142  0.002002  0.021900)
 72:   1511.33   0.004903   24.78  0.001012  (-0.015759 -0.024089 -0.013554)
 73:   1515.85   0.060151  303.98  0.012383  (-0.063398 -0.081648 -0.041200)
 74:   1555.83   0.018097   91.46  0.003630  ( 0.059552 -0.000214 -0.009132)
 75:   1608.81   0.035126  177.51  0.006813  ( 0.029158 -0.004137  0.077111)
 76:   1649.54   0.006739   34.06  0.001275  (-0.006780  0.028894 -0.019852)
 77:   1685.25   0.023391  118.21  0.004331  ( 0.001613  0.036459 -0.054768)
 78:   1696.19   0.148537  750.65  0.027328  (-0.054976 -0.142291  0.063709)
 79:   1823.98   0.047423  239.65  0.008114  ( 0.039224 -0.045486 -0.067127)
 80:   2439.28   0.399022  2016.49  0.051048  ( 0.041164  0.203339 -0.089479)
 81:   3049.41   0.001992   10.07  0.000204  ( 0.005071  0.003163 -0.012965)
 82:   3079.35   0.004293   21.69  0.000435  ( 0.004867  0.009659  0.017834)
 83:   3085.87   0.000567    2.86  0.000057  (-0.000279 -0.004036 -0.006399)
 84:   3091.34   0.000625    3.16  0.000063  (-0.000230  0.005821  0.005401)
 85:   3094.62   0.002100   10.61  0.000212  ( 0.006943  0.000570  0.012776)
 86:   3099.44   0.003378   17.07  0.000340  ( 0.016232  0.007498 -0.004519)
 87:   3117.88   0.000311    1.57  0.000031  ( 0.002896 -0.000515  0.004746)
 88:   3148.52   0.001199    6.06  0.000119  (-0.009540 -0.004851 -0.002068)
 89:   3168.51   0.000741    3.74  0.000073  ( 0.005622 -0.005221 -0.003755)
 90:   3170.46   0.000159    0.80  0.000016  ( 0.000512  0.003896 -0.000427)
 91:   3176.34   0.000133    0.67  0.000013  ( 0.002304 -0.002484 -0.001256)
 92:   3184.20   0.000945    4.78  0.000093  (-0.006103  0.001573  0.007276)
 93:   3206.21   0.000247    1.25  0.000024  ( 0.001355  0.004104 -0.002308)
 94:   3230.85   0.000110    0.55  0.000011  ( 0.001605  0.002793 -0.000479)
 95:   3461.04   0.014328   72.41  0.001292  (-0.029470 -0.020008  0.004806)
 96:   3530.19   0.013602   68.74  0.001202  ( 0.001147  0.011543  0.032678)
 97:   3623.03   0.006009   30.37  0.000518  ( 0.017856 -0.003630 -0.013622)
 98:   3628.53   0.017215   87.00  0.001481  ( 0.018335  0.033798  0.001431)

--------------------------
THERMOCHEMISTRY AT 298.15K
--------------------------

Temperature         ... 298.15 K
Pressure            ... 1.00 atm
Total Mass          ... 201.27 AMU

Throughout the following assumptions are being made:
  (1) The electronic state is orbitally nondegenerate
      but the spin degeneracy is treated
  (2) There are no thermally accessible electronically excited states
  (3) Hindered rotations indicated by low frequency modes are not
      treated as such but are treated as vibrations and this may
      cause some error
  (4) All equations used are the standard statistical mechanics
      equations for an ideal gas
  (5) All vibrations are strictly harmonic

freq.      23.12  E(vib)   ...       0.56
freq.      49.95  E(vib)   ...       0.52
freq.      70.99  E(vib)   ...       0.50
freq.      80.29  E(vib)   ...       0.49
freq.     105.85  E(vib)   ...       0.45
freq.     118.23  E(vib)   ...       0.44
freq.     134.55  E(vib)   ...       0.42
freq.     169.75  E(vib)   ...       0.38
freq.     195.69  E(vib)   ...       0.36
freq.     200.28  E(vib)   ...       0.35
freq.     221.68  E(vib)   ...       0.33
freq.     254.88  E(vib)   ...       0.30
freq.     281.96  E(vib)   ...       0.28
freq.     320.96  E(vib)   ...       0.25
freq.     333.89  E(vib)   ...       0.24
freq.     365.33  E(vib)   ...       0.22
freq.     384.62  E(vib)   ...       0.20
freq.     410.79  E(vib)   ...       0.19
freq.     443.78  E(vib)   ...       0.17
freq.     463.82  E(vib)   ...       0.16
freq.     493.63  E(vib)   ...       0.14
freq.     538.82  E(vib)   ...       0.12
freq.     585.59  E(vib)   ...       0.11
freq.     603.96  E(vib)   ...       0.10
freq.     646.38  E(vib)   ...       0.09
freq.     656.21  E(vib)   ...       0.08
freq.     684.22  E(vib)   ...       0.07
freq.     785.64  E(vib)   ...       0.05
freq.     813.65  E(vib)   ...       0.05
freq.     875.04  E(vib)   ...       0.04
freq.     882.74  E(vib)   ...       0.04
freq.     908.49  E(vib)   ...       0.03
freq.     925.67  E(vib)   ...       0.03
freq.     970.41  E(vib)   ...       0.03
freq.     991.20  E(vib)   ...       0.02
freq.    1007.34  E(vib)   ...       0.02
freq.    1038.00  E(vib)   ...       0.02
freq.    1053.85  E(vib)   ...       0.02
freq.    1061.24  E(vib)   ...       0.02
freq.    1088.35  E(vib)   ...       0.02
freq.    1106.52  E(vib)   ...       0.02
freq.    1140.30  E(vib)   ...       0.01
freq.    1155.37  E(vib)   ...       0.01
freq.    1172.91  E(vib)   ...       0.01
freq.    1180.23  E(vib)   ...       0.01
freq.    1203.41  E(vib)   ...       0.01
freq.    1233.83  E(vib)   ...       0.01
freq.    1253.99  E(vib)   ...       0.01
freq.    1276.16  E(vib)   ...       0.01
freq.    1291.15  E(vib)   ...       0.01
freq.    1311.19  E(vib)   ...       0.01
freq.    1339.33  E(vib)   ...       0.01
freq.    1352.42  E(vib)   ...       0.01
freq.    1359.66  E(vib)   ...       0.01
freq.    1385.41  E(vib)   ...       0.00
freq.    1389.67  E(vib)   ...       0.00
freq.    1407.54  E(vib)   ...       0.00
freq.    1425.32  E(vib)   ...       0.00
freq.    1459.97  E(vib)   ...       0.00
freq.    1471.56  E(vib)   ...       0.00
freq.    1487.15  E(vib)   ...       0.00
freq.    1490.99  E(vib)   ...       0.00
freq.    1494.56  E(vib)   ...       0.00
freq.    1496.69  E(vib)   ...       0.00
freq.    1503.75  E(vib)   ...       0.00
freq.    1511.33  E(vib)   ...       0.00
freq.    1515.85  E(vib)   ...       0.00
freq.    1555.83  E(vib)   ...       0.00
freq.    1608.81  E(vib)   ...       0.00
freq.    1649.54  E(vib)   ...       0.00
freq.    1685.25  E(vib)   ...       0.00
freq.    1696.19  E(vib)   ...       0.00
freq.    1823.98  E(vib)   ...       0.00
freq.    2439.28  E(vib)   ...       0.00
freq.    3049.41  E(vib)   ...       0.00
freq.    3079.35  E(vib)   ...       0.00
freq.    3085.87  E(vib)   ...       0.00
freq.    3091.34  E(vib)   ...       0.00
freq.    3094.62  E(vib)   ...       0.00
freq.    3099.44  E(vib)   ...       0.00
freq.    3117.88  E(vib)   ...       0.00
freq.    3148.52  E(vib)   ...       0.00
freq.    3168.51  E(vib)   ...       0.00
freq.    3170.46  E(vib)   ...       0.00
freq.    3176.34  E(vib)   ...       0.00
freq.    3184.20  E(vib)   ...       0.00
freq.    3206.21  E(vib)   ...       0.00
freq.    3230.85  E(vib)   ...       0.00
freq.    3461.04  E(vib)   ...       0.00
freq.    3530.19  E(vib)   ...       0.00
freq.    3623.03  E(vib)   ...       0.00
freq.    3628.53  E(vib)   ...       0.00

------------
INNER ENERGY
------------

The inner energy is: U= E(el) + E(ZPE) + E(vib) + E(rot) + E(trans)
    E(el)   - is the total energy from the electronic structure calculation
              = E(kin-el) + E(nuc-el) + E(el-el) + E(nuc-nuc)
    E(ZPE)  - the the zero temperature vibrational energy from the frequency calculation
    E(vib)  - the the finite temperature correction to E(ZPE) due to population
              of excited vibrational states
    E(rot)  - is the rotational thermal energy
    E(trans)- is the translational thermal energy

Summary of contributions to the inner energy U:
Electronic energy                ...   -668.83764915 Eh
Zero point energy                ...      0.29220171 Eh     183.36 kcal/mol
Thermal vibrational correction   ...      0.01288456 Eh       8.09 kcal/mol
Thermal rotational correction    ...      0.00141627 Eh       0.89 kcal/mol
Thermal translational correction ...      0.00141627 Eh       0.89 kcal/mol
-----------------------------------------------------------------------
Total thermal energy                   -668.52973034 Eh

Summary of corrections to the electronic energy:
(perhaps to be used in another calculation)
Total thermal correction                  0.01571710 Eh       9.86 kcal/mol
Non-thermal (ZPE) correction              0.29220171 Eh     183.36 kcal/mol
-----------------------------------------------------------------------
Total correction                          0.30791881 Eh     193.22 kcal/mol

--------
ENTHALPY
--------

The enthalpy is H = U + kB*T
                kB is Boltzmann's constant
Total free energy                 ...   -668.52973034 Eh
Thermal Enthalpy correction       ...      0.00094421 Eh       0.59 kcal/mol
-----------------------------------------------------------------------
Total Enthalpy                    ...   -668.52878613 Eh

Note: Only C1 symmetry has been detected, increase convergence thresholds
      if your molecule has a higher symmetry. Symmetry factor of 1.0 is
      used for the rotational entropy correction.

Note: Rotational entropy computed according to Herzberg
Infrared and Raman Spectra, Chapter V,1, Van Nostrand Reinhold, 1945

Rotational constants in cm-1:     0.027469     0.014687     0.010719

                             ****ORCA TERMINATED NORMALLY****
TOTAL RUN TIME: 0 days 0 hours 45 minutes 44 seconds 735 msec
