                         Program Version 5.0.4 -  RELEASE  -
|  1> ! B3LYP EPR-II OPT
|  2> %pal nprocs 16 end
|  3> *XYZFile 1 2 model.xyz
|  4>
|  5>                          ****END OF INPUT****
 Total Charge           Charge          ....    1
 Multiplicity           Mult            ....    2
 Number of Electrons    NEL             ....  109
FINAL SINGLE POINT ENERGY      -668.615195431101
FINAL SINGLE POINT ENERGY      -668.611842762536
FINAL SINGLE POINT ENERGY      -668.601117145215
FINAL SINGLE POINT ENERGY      -668.615700440570
FINAL SINGLE POINT ENERGY      -668.615377009037
FINAL SINGLE POINT ENERGY      -668.616401160546
FINAL SINGLE POINT ENERGY      -668.616697951707
FINAL SINGLE POINT ENERGY      -668.616870577252
FINAL SINGLE POINT ENERGY      -668.616890186268
FINAL SINGLE POINT ENERGY      -668.616902675183
FINAL SINGLE POINT ENERGY      -668.616908326960
FINAL SINGLE POINT ENERGY      -668.616911132305
FINAL SINGLE POINT ENERGY      -668.616912297170
                    ***********************HURRAY********************

CARTESIAN COORDINATES (ANGSTROEM)
---------------------------------
  N     -7.695452    0.915880   -0.002031
  C     -6.407819    1.537824   -0.285496
  C     -5.640124    1.899505    1.004419
  O     -4.839114    2.865264    1.054681
  C     -6.470840    2.716802   -1.277992
  C     -7.233356    3.986645   -0.754306
  C     -6.565953    5.272404   -1.150673
  C     -5.609088    5.972053   -0.238561
  N     -4.306006    5.175794   -0.054107
  H     -6.721482    5.679625   -2.145827
  H     -6.015217    6.073015    0.773914
  H     -5.332288    6.960596   -0.609064
  H     -3.684180    5.641954    0.611527
  H     -3.807485    5.090979   -0.941929
  H     -8.441672    1.493786    0.360012
  C     -8.054549   -0.272154   -0.647139
  N     -5.821443    1.089553    2.054490
  H     -6.487887    0.338015    1.941109
  O     -7.239066   -0.912234   -1.294087
  H     -4.524453    4.190240    0.323065
  C     -5.084179    1.219289    3.314123
  H     -5.431998    2.086339    3.882980
  H     -5.244975    0.316617    3.903859
  H     -4.017254    1.334696    3.113259
  C     -9.497801   -0.712477   -0.467239
  H     -9.987405   -0.696974   -1.445482
  H     -9.504423   -1.747249   -0.116486
  H    -10.064772   -0.088929    0.228852
  H     -5.822496    0.740799   -0.763690
  H     -5.442821    2.975349   -1.547732
  H     -6.939174    2.357172   -2.197821
  H     -7.308601    3.948344    0.339848
  H     -8.255743    3.976152   -1.146750

 Multiplicity           Mult            ....    2
 Number of Electrons    NEL             ....  109
 Basis Dimension        Dim             ....  371

ORBITAL ENERGIES
----------------
                 SPIN UP ORBITALS
  NO   OCC          E(Eh)            E(eV)
   0   1.0000     -19.261530      -524.1329
   1   1.0000     -19.221681      -523.0485
   2   1.0000     -14.576917      -396.6581
   3   1.0000     -14.497158      -394.4877
   4   1.0000     -14.478145      -393.9704
   5   1.0000     -10.437377      -284.0155
   6   1.0000     -10.407314      -283.1974
   7   1.0000     -10.399121      -282.9745
   8   1.0000     -10.365788      -282.0674
   9   1.0000     -10.355593      -281.7900
  10   1.0000     -10.334155      -281.2066
  11   1.0000     -10.332066      -281.1498
  12   1.0000     -10.326550      -280.9997
  13   1.0000     -10.290183      -280.0101
  14   1.0000      -1.179184       -32.0872
  15   1.0000      -1.146688       -31.2030
  16   1.0000      -1.130322       -30.7576
  17   1.0000      -1.061808       -28.8933
  18   1.0000      -1.037359       -28.2280
  19   1.0000      -0.949060       -25.8252
  20   1.0000      -0.903676       -24.5903
  21   1.0000      -0.864342       -23.5199
  22   1.0000      -0.836961       -22.7749
  23   1.0000      -0.819295       -22.2942
  24   1.0000      -0.763119       -20.7655
  25   1.0000      -0.741155       -20.1678
  26   1.0000      -0.735543       -20.0151
  27   1.0000      -0.709603       -19.3093
  28   1.0000      -0.702198       -19.1078
  29   1.0000      -0.695599       -18.9282
  30   1.0000      -0.663042       -18.0423
  31   1.0000      -0.634310       -17.2604
  32   1.0000      -0.620742       -16.8912
  33   1.0000      -0.601719       -16.3736
  34   1.0000      -0.599319       -16.3083
  35   1.0000      -0.582253       -15.8439
  36   1.0000      -0.579076       -15.7575
  37   1.0000      -0.568810       -15.4781
  38   1.0000      -0.567377       -15.4391
  39   1.0000      -0.547478       -14.8976
  40   1.0000      -0.536734       -14.6053
  41   1.0000      -0.526434       -14.3250
  42   1.0000      -0.517782       -14.0896
  43   1.0000      -0.514570       -14.0022
  44   1.0000      -0.509674       -13.8689
  45   1.0000      -0.502588       -13.6761
  46   1.0000      -0.493034       -13.4161
  47   1.0000      -0.485357       -13.2072
  48   1.0000      -0.477444       -12.9919
  49   1.0000      -0.464856       -12.6494
  50   1.0000      -0.419172       -11.4062
  51   1.0000      -0.399437       -10.8692
  52   1.0000      -0.379453       -10.3254
  53   1.0000      -0.365027        -9.9329
  54   1.0000      -0.355038        -9.6611
  55   0.0000      -0.133282        -3.6268
  56   0.0000      -0.127715        -3.4753
  57   0.0000      -0.099806        -2.7159
  58   0.0000      -0.092475        -2.5164
  59   0.0000      -0.091303        -2.4845

                 SPIN DOWN ORBITALS
  NO   OCC          E(Eh)            E(eV)
   0   1.0000     -19.261524      -524.1327
   1   1.0000     -19.221673      -523.0483
   2   1.0000     -14.575058      -396.6075
   3   1.0000     -14.497140      -394.4872
   4   1.0000     -14.478110      -393.9694
   5   1.0000     -10.437384      -284.0157
   6   1.0000     -10.407308      -283.1972
   7   1.0000     -10.399973      -282.9977
   8   1.0000     -10.365638      -282.0634
   9   1.0000     -10.342047      -281.4214
  10   1.0000     -10.334156      -281.2067
  11   1.0000     -10.332856      -281.1713
  12   1.0000     -10.325098      -280.9602
  13   1.0000     -10.290184      -280.0101
  14   1.0000      -1.179116       -32.0854
  15   1.0000      -1.146651       -31.2020
  16   1.0000      -1.126870       -30.6637
  17   1.0000      -1.061731       -28.8912
  18   1.0000      -1.037175       -28.2230
  19   1.0000      -0.936459       -25.4823
  20   1.0000      -0.898074       -24.4378
  21   1.0000      -0.863098       -23.4861
  22   1.0000      -0.836920       -22.7738
  23   1.0000      -0.816977       -22.2311
  24   1.0000      -0.755535       -20.5591
  25   1.0000      -0.738910       -20.1068
  26   1.0000      -0.732077       -19.9208
  27   1.0000      -0.705902       -19.2086
  28   1.0000      -0.700580       -19.0637
  29   1.0000      -0.690229       -18.7821
  30   1.0000      -0.662654       -18.0317
  31   1.0000      -0.627524       -17.0758
  32   1.0000      -0.618189       -16.8218
  33   1.0000      -0.599358       -16.3094
  34   1.0000      -0.597919       -16.2702
  35   1.0000      -0.579944       -15.7811
  36   1.0000      -0.578148       -15.7322
  37   1.0000      -0.566624       -15.4186
  38   1.0000      -0.565042       -15.3756
  39   1.0000      -0.546246       -14.8641
  40   1.0000      -0.534474       -14.5438
  41   1.0000      -0.523941       -14.2572
  42   1.0000      -0.517555       -14.0834
  43   1.0000      -0.513714       -13.9789
  44   1.0000      -0.507247       -13.8029
  45   1.0000      -0.501037       -13.6339
  46   1.0000      -0.490736       -13.3536
  47   1.0000      -0.481168       -13.0932
  48   1.0000      -0.475624       -12.9424
  49   1.0000      -0.463553       -12.6139
  50   1.0000      -0.418683       -11.3930
  51   1.0000      -0.399248       -10.8641
  52   1.0000      -0.378304       -10.2942
  53   1.0000      -0.364256        -9.9119
  54   0.0000      -0.220181        -5.9914
  55   0.0000      -0.131119        -3.5679
  56   0.0000      -0.123598        -3.3633
  57   0.0000      -0.098963        -2.6929
  58   0.0000      -0.092137        -2.5072

MULLIKEN ATOMIC CHARGES AND SPIN POPULATIONS
--------------------------------------------
   0 N :   -0.183947    0.002090
   1 C :   -0.087502    0.002052
   2 C :    0.080971    0.002839
   3 O :   -0.364307   -0.000759
   4 C :   -0.286365    0.056789
   5 C :   -0.285842   -0.060961
   6 C :   -0.092171    0.972375
   7 C :   -0.287195   -0.027034
   8 N :   -0.380736    0.052619
   9 H :    0.166329   -0.046197
  10 H :    0.207927    0.021999
  11 H :    0.203257    0.001416
  12 H :    0.311447    0.006414
  13 H :    0.312733   -0.001472
  14 H :    0.238045   -0.000213
  15 C :    0.187367    0.000498
  16 N :   -0.066208    0.000746
  17 H :    0.264676   -0.000011
  18 O :   -0.263160    0.000349
  19 H :    0.337193   -0.005436
  20 C :   -0.424470   -0.000113
  21 H :    0.182586    0.000054
  22 H :    0.170585   -0.000000
  23 H :    0.190213    0.000036
  24 C :   -0.537770   -0.000084
  25 H :    0.201413    0.000061
  26 H :    0.203991    0.000006
  27 H :    0.147325    0.000009
  28 H :    0.213879    0.001348
  29 H :    0.138922   -0.003647
  30 H :    0.179085   -0.000327
  31 H :    0.148835    0.008048
  32 H :    0.172895    0.016506
Sum of atomic charges         :    1.0000000

LOEWDIN ATOMIC CHARGES AND SPIN POPULATIONS
-------------------------------------------
   0 N :    0.028135    0.001488
   1 C :   -0.047934    0.006009
   2 C :   -0.066647    0.000189
   3 O :   -0.211321    0.000409
   4 C :   -0.037969    0.052243
   5 C :   -0.073679    0.007541
   6 C :   -0.019203    0.797535
   7 C :    0.001544    0.027810
   8 N :    0.300627    0.054591
   9 H :    0.052347    0.005231
  10 H :    0.065474    0.017994
  11 H :    0.057446    0.000336
  12 H :    0.109059    0.004837
  13 H :    0.108985    0.001356
  14 H :    0.083939    0.000073
  15 C :   -0.094231    0.000364
  16 N :    0.086578    0.000698
  17 H :    0.096434   -0.000008
  18 O :   -0.149115    0.000370
  19 H :    0.092176    0.000351
  20 C :    0.031105   -0.000003
  21 H :    0.041835    0.000034
  22 H :    0.044191   -0.000001
  23 H :    0.048038    0.000035
  24 C :   -0.029496    0.000006
  25 H :    0.064772    0.000035
  26 H :    0.064683    0.000009
  27 H :    0.035622    0.000008
  28 H :    0.094311    0.001440
  29 H :    0.046189    0.000385
  30 H :    0.060685    0.000356
  31 H :    0.055632    0.005687
  32 H :    0.059786    0.012592

  Mayer bond orders larger than 0.100000
B(  0-N ,  1-C ) :   1.0098 B(  0-N , 14-H ) :   0.9228 B(  0-N , 15-C ) :   1.0956
B(  1-C ,  2-C ) :   0.9336 B(  1-C ,  4-C ) :   0.9566 B(  1-C , 18-O ) :   0.1329
B(  1-C , 28-H ) :   0.9138 B(  2-C ,  3-O ) :   1.6585 B(  2-C , 16-N ) :   1.3595
B(  3-O , 19-H ) :   0.2051 B(  4-C ,  5-C ) :   0.9231 B(  4-C , 29-H ) :   0.9667
B(  4-C , 30-H ) :   0.9660 B(  5-C ,  6-C ) :   1.0242 B(  5-C , 31-H ) :   0.9699
B(  5-C , 32-H ) :   0.9521 B(  6-C ,  7-C ) :   1.0203 B(  6-C ,  9-H ) :   0.9705
B(  7-C ,  8-N ) :   0.9030 B(  7-C , 10-H ) :   0.9461 B(  7-C , 11-H ) :   0.9518
B(  8-N , 12-H ) :   0.9000 B(  8-N , 13-H ) :   0.9020 B(  8-N , 19-H ) :   0.7160
B( 15-C , 18-O ) :   1.9346 B( 15-C , 24-C ) :   0.9166 B( 16-N , 17-H ) :   0.9073
B( 16-N , 20-C ) :   0.9574 B( 20-C , 21-H ) :   0.9507 B( 20-C , 22-H ) :   0.9587
B( 20-C , 23-H ) :   0.9494 B( 24-C , 25-H ) :   0.9464 B( 24-C , 26-H ) :   0.9482
B( 24-C , 27-H ) :   0.9723

FINAL SINGLE POINT ENERGY      -668.616913377576

DIPOLE MOMENT
-------------
                                X             Y             Z
Electronic contribution:      1.74971      -4.75753      -1.45006
Nuclear contribution   :     -0.77639       8.30757       2.27150
                        -----------------------------------------
Total Dipole Moment    :      0.97332       3.55004       0.82144
                        -----------------------------------------
Magnitude (a.u.)       :      3.77159
Magnitude (Debye)      :      9.58662

Rotational constants in cm-1:     0.028669     0.013617     0.010295
Rotational constants in MHz :   859.469821   408.228366   308.643980

                             ****ORCA TERMINATED NORMALLY****
TOTAL RUN TIME: 0 days 0 hours 8 minutes 34 seconds 797 msec
