                         Program Version 5.0.4 -  RELEASE  -
|  1> ! B3LYP EPR-II AUTOAUX
|  2> %pal nprocs 16 end
|  3> *XYZFile 1 2 opt.xyz
|  4> %EPRNMR
|  5>         GTENSOR   TRUE
|  6>         NUCLEI    = 9,11,12,13,14,15,16,17,18,24 {SHIFT, AISO, ADIP, AORB}
|  7>         ORI       GIAO
|  8> END
|  9>
| 10>                          ****END OF INPUT****

CARTESIAN COORDINATES (ANGSTROEM)
---------------------------------
  N     -7.851626    0.799444    0.170181
  C     -6.390469    0.844836    0.182893
  C     -5.965356    0.818841    1.676719
  O     -6.601538    1.465768    2.511323
  C     -5.817132    2.080472   -0.467175
  C     -6.470127    3.415446   -0.264898
  C     -5.566508    4.587081   -0.705116
  C     -6.297812    5.918138   -0.538914
  N     -5.417382    7.081994   -1.013077
  H     -5.060965    1.958819   -1.237713
  H     -6.754472    3.532009    0.789594
  H     -7.405948    3.454877   -0.847108
  H     -5.284452    4.449332   -1.757662
  H     -4.645374    4.588312   -0.107926
  H     -6.544967    6.132026    0.503548
  H     -7.209766    5.968579   -1.138315
  H     -5.888980    7.986498   -0.913089
  H     -5.164230    6.963603   -1.999371
  H     -8.315898    0.853298    1.066453
  C     -8.564552    0.838758   -0.999714
  N     -4.853318    0.089083    1.952542
  H     -4.449509   -0.459995    1.208327
  O     -8.007595    0.946558   -2.092879
  H     -4.545030    7.118187   -0.476113
  C     -4.288345   -0.033807    3.295923
  H     -4.366477   -1.063815    3.656948
  H     -3.236744    0.268291    3.299944
  H     -4.854967    0.618495    3.960012
  C    -10.076216    0.711913   -0.860585
  H    -10.369793   -0.282560   -1.210530
  H    -10.430992    0.840499    0.165323
  H    -10.555404    1.445026   -1.513034
  H     -5.996827   -0.034264   -0.340772

 Total Charge           Charge          ....    1
 Multiplicity           Mult            ....    2
 Number of Electrons    NEL             ....  109
 Basis Dimension        Dim             ....  371

ORBITAL ENERGIES
----------------
                 SPIN UP ORBITALS
  NO   OCC          E(Eh)            E(eV)
   0   1.0000     -19.206563      -522.6372
   1   1.0000     -19.188659      -522.1499
   2   1.0000     -14.646026      -398.5386
   3   1.0000     -14.456949      -393.3936
   4   1.0000     -14.440699      -392.9514
   5   1.0000     -10.424099      -283.6542
   6   1.0000     -10.391107      -282.7564
   7   1.0000     -10.374341      -282.3002
   8   1.0000     -10.351332      -281.6741
   9   1.0000     -10.336544      -281.2717
  10   1.0000     -10.315902      -280.7100
  11   1.0000     -10.306576      -280.4562
  12   1.0000     -10.299346      -280.2594
  13   1.0000     -10.265147      -279.3288
  14   1.0000      -1.192542       -32.4507
  15   1.0000      -1.130413       -30.7601
  16   1.0000      -1.110996       -30.2317
  17   1.0000      -1.015072       -27.6215
  18   1.0000      -1.006435       -27.3865
  19   1.0000      -0.958944       -26.0942
  20   1.0000      -0.892277       -24.2801
  21   1.0000      -0.849139       -23.1063
  22   1.0000      -0.808075       -21.9888
  23   1.0000      -0.801880       -21.8203
  24   1.0000      -0.778880       -21.1944
  25   1.0000      -0.778056       -21.1720
  26   1.0000      -0.747220       -20.3329
  27   1.0000      -0.707136       -19.2422
  28   1.0000      -0.679270       -18.4839
  29   1.0000      -0.673500       -18.3269
  30   1.0000      -0.651951       -17.7405
  31   1.0000      -0.633258       -17.2318
  32   1.0000      -0.619185       -16.8489
  33   1.0000      -0.586228       -15.9521
  34   1.0000      -0.575113       -15.6496
  35   1.0000      -0.559623       -15.2281
  36   1.0000      -0.555276       -15.1098
  37   1.0000      -0.541313       -14.7299
  38   1.0000      -0.539953       -14.6929
  39   1.0000      -0.531483       -14.4624
  40   1.0000      -0.518190       -14.1007
  41   1.0000      -0.505310       -13.7502
  42   1.0000      -0.491543       -13.3756
  43   1.0000      -0.486892       -13.2490
  44   1.0000      -0.485159       -13.2019
  45   1.0000      -0.478087       -13.0094
  46   1.0000      -0.473500       -12.8846
  47   1.0000      -0.467164       -12.7122
  48   1.0000      -0.461026       -12.5451
  49   1.0000      -0.432391       -11.7660
  50   1.0000      -0.368349       -10.0233
  51   1.0000      -0.352649        -9.5961
  52   1.0000      -0.342415        -9.3176
  53   1.0000      -0.336784        -9.1644
  54   1.0000      -0.293880        -7.9969
  55   0.0000      -0.184548        -5.0218
  56   0.0000      -0.116700        -3.1756
  57   0.0000      -0.110117        -2.9964
  58   0.0000      -0.081693        -2.2230
  59   0.0000      -0.077105        -2.0981

                 SPIN DOWN ORBITALS
  NO   OCC          E(Eh)            E(eV)
   0   1.0000     -19.206135      -522.6255
   1   1.0000     -19.188148      -522.1360
   2   1.0000     -14.646032      -398.5388
   3   1.0000     -14.456625      -393.3848
   4   1.0000     -14.440007      -392.9326
   5   1.0000     -10.424097      -283.6541
   6   1.0000     -10.390180      -282.7312
   7   1.0000     -10.374352      -282.3005
   8   1.0000     -10.351155      -281.6692
   9   1.0000     -10.337341      -281.2933
  10   1.0000     -10.316763      -280.7334
  11   1.0000     -10.299345      -280.2594
  12   1.0000     -10.292863      -280.0831
  13   1.0000     -10.265060      -279.3265
  14   1.0000      -1.192541       -32.4507
  15   1.0000      -1.129387       -30.7322
  16   1.0000      -1.110130       -30.2082
  17   1.0000      -1.014228       -27.5986
  18   1.0000      -1.004395       -27.3310
  19   1.0000      -0.957634       -26.0586
  20   1.0000      -0.881499       -23.9868
  21   1.0000      -0.847835       -23.0708
  22   1.0000      -0.806950       -21.9582
  23   1.0000      -0.797850       -21.7106
  24   1.0000      -0.778865       -21.1940
  25   1.0000      -0.776056       -21.1176
  26   1.0000      -0.745016       -20.2729
  27   1.0000      -0.697324       -18.9751
  28   1.0000      -0.678607       -18.4658
  29   1.0000      -0.672951       -18.3119
  30   1.0000      -0.645014       -17.5517
  31   1.0000      -0.631942       -17.1960
  32   1.0000      -0.615821       -16.7574
  33   1.0000      -0.583566       -15.8796
  34   1.0000      -0.572871       -15.5886
  35   1.0000      -0.556247       -15.1362
  36   1.0000      -0.554378       -15.0854
  37   1.0000      -0.539239       -14.6734
  38   1.0000      -0.538367       -14.6497
  39   1.0000      -0.530061       -14.4237
  40   1.0000      -0.517027       -14.0690
  41   1.0000      -0.501301       -13.6411
  42   1.0000      -0.488447       -13.2913
  43   1.0000      -0.483464       -13.1557
  44   1.0000      -0.483296       -13.1512
  45   1.0000      -0.477847       -13.0029
  46   1.0000      -0.472065       -12.8455
  47   1.0000      -0.463649       -12.6165
  48   1.0000      -0.459454       -12.5024
  49   1.0000      -0.431040       -11.7292
  50   1.0000      -0.359612        -9.7855
  51   1.0000      -0.350960        -9.5501
  52   1.0000      -0.340211        -9.2576
  53   1.0000      -0.332611        -9.0508
  54   0.0000      -0.184598        -5.0232
  55   0.0000      -0.160521        -4.3680
  56   0.0000      -0.116434        -3.1683
  57   0.0000      -0.109861        -2.9895
  58   0.0000      -0.081603        -2.2205

MULLIKEN ATOMIC CHARGES AND SPIN POPULATIONS
--------------------------------------------
   0 N :   -0.138250    0.021292
   1 C :   -0.097280   -0.056113
   2 C :    0.057014    0.022795
   3 O :   -0.324575    0.015612
   4 C :   -0.075465    0.980365
   5 C :   -0.205880   -0.051804
   6 C :   -0.280558    0.005023
   7 C :   -0.287473   -0.000329
   8 N :   -0.370442    0.000013
   9 H :    0.102464   -0.049713
  10 H :    0.181517    0.019990
  11 H :    0.160530    0.050179
  12 H :    0.163540    0.000010
  13 H :    0.166839    0.000664
  14 H :    0.222018    0.000157
  15 H :    0.219951    0.000178
  16 H :    0.334211    0.000109
  17 H :    0.335681    0.000063
  18 H :    0.255684   -0.000753
  19 C :    0.168757   -0.000287
  20 N :   -0.088915    0.015346
  21 H :    0.235275   -0.000264
  22 O :   -0.309592    0.013247
  23 H :    0.334960    0.000017
  24 C :   -0.447804   -0.000115
  25 H :    0.178940    0.000231
  26 H :    0.167903    0.001177
  27 H :    0.199118    0.000251
  28 C :   -0.543039    0.004035
  29 H :    0.199486   -0.000235
  30 H :    0.151629    0.000153
  31 H :    0.184050    0.000588
  32 H :    0.149702    0.008117
Sum of atomic charges         :    1.0000000

LOEWDIN ATOMIC CHARGES AND SPIN POPULATIONS
-------------------------------------------
   0 N :    0.057678    0.018907
   1 C :   -0.050673    0.013166
   2 C :   -0.096588    0.032415
   3 O :   -0.195716    0.014989
   4 C :   -0.018384    0.800205
   5 C :   -0.062781    0.008518
   6 C :   -0.073303    0.006215
   7 C :    0.025326    0.000861
   8 N :    0.343733   -0.000012
   9 H :    0.045318    0.009192
  10 H :    0.066648    0.017494
  11 H :    0.065398    0.039251
  12 H :    0.054237    0.000388
  13 H :    0.054282    0.000181
  14 H :    0.063101    0.000163
  15 H :    0.062938    0.000323
  16 H :    0.124338    0.000078
  17 H :    0.127460    0.000016
  18 H :    0.093223    0.000261
  19 C :   -0.103255    0.002286
  20 N :    0.053726    0.012033
  21 H :    0.082835    0.000088
  22 O :   -0.178286    0.013984
  23 H :    0.127059    0.000060
  24 C :    0.020752    0.000756
  25 H :    0.038422    0.000219
  26 H :    0.034994    0.000799
  27 H :    0.055208    0.000151
  28 C :   -0.034868    0.002828
  29 H :    0.062318   -0.000001
  30 H :    0.036921    0.000091
  31 H :    0.054571    0.000427
  32 H :    0.063366    0.003667

  Mayer bond orders larger than 0.100000
B(  0-N ,  1-C ) :   1.0115 B(  0-N , 18-H ) :   0.8981 B(  0-N , 19-C ) :   1.1934
B(  1-C ,  2-C ) :   0.8666 B(  1-C ,  4-C ) :   0.9810 B(  1-C , 32-H ) :   0.9739
B(  2-C ,  3-O ) :   1.8622 B(  2-C , 20-N ) :   1.2177 B(  4-C ,  5-C ) :   1.0034
B(  4-C ,  9-H ) :   0.9802 B(  5-C ,  6-C ) :   0.9857 B(  5-C , 10-H ) :   0.9437
B(  5-C , 11-H ) :   0.9353 B(  6-C ,  7-C ) :   0.9581 B(  6-C , 12-H ) :   0.9588
B(  6-C , 13-H ) :   0.9566 B(  7-C ,  8-N ) :   0.8760 B(  7-C , 14-H ) :   0.9360
B(  7-C , 15-H ) :   0.9374 B(  8-N , 16-H ) :   0.8843 B(  8-N , 17-H ) :   0.8832
B(  8-N , 23-H ) :   0.8837 B( 19-C , 22-O ) :   1.8653 B( 19-C , 28-C ) :   0.9007
B( 20-N , 21-H ) :   0.9267 B( 20-N , 24-C ) :   0.9654 B( 24-C , 25-H ) :   0.9543
B( 24-C , 26-H ) :   0.9574 B( 24-C , 27-H ) :   0.9442 B( 28-C , 29-H ) :   0.9485
B( 28-C , 30-H ) :   0.9732 B( 28-C , 31-H ) :   0.9595

FINAL SINGLE POINT ENERGY      -668.586778386999

DIPOLE MOMENT
-------------
                                X             Y             Z
Electronic contribution:     -1.18755      -5.57359      -0.31579
Nuclear contribution   :      3.60819      12.39673      -0.73099
                        -----------------------------------------
Total Dipole Moment    :      2.42063       6.82314      -1.04677
                        -----------------------------------------
Magnitude (a.u.)       :      7.31508
Magnitude (Debye)      :     18.59345

Rotational constants in cm-1:     0.020123     0.013160     0.008927
Rotational constants in MHz :   603.283927   394.513458   267.621102

CHEMICAL SHIELDING SUMMARY (ppm)  --  Orbital contribution
----------------------------------------------------------

  Nucleus  Element    Isotropic     Anisotropy
  -------  -------  ------------   ------------
      8       N          211.176         29.005
     10       H           29.009          6.719
     11       H           29.324          6.998
     12       H           29.963          5.460
     13       H           29.993          5.336
     14       H           28.365          5.335
     15       H           28.351          5.140
     16       H           27.394         16.140
     17       H           27.803         12.893
     23       H           27.810         12.822

                             ****ORCA TERMINATED NORMALLY****
TOTAL RUN TIME: 0 days 0 hours 5 minutes 31 seconds 427 msec
