                         Program Version 5.0.4 -  RELEASE  -
|  1> ! M062X def2-TZVP OPT FREQ
|  2> %pal nprocs 16 end
|  3> *XYZFile 1 2 opt.xyz
|  4>
|  5>                          ****END OF INPUT****
 Total Charge           Charge          ....    1
 Multiplicity           Mult            ....    2
 Number of Electrons    NEL             ....  109
FINAL SINGLE POINT ENERGY      -668.804778862627
FINAL SINGLE POINT ENERGY      -668.807774950591
FINAL SINGLE POINT ENERGY      -668.807844661497
FINAL SINGLE POINT ENERGY      -668.807877986931
FINAL SINGLE POINT ENERGY      -668.807891107958
FINAL SINGLE POINT ENERGY      -668.807899809103
FINAL SINGLE POINT ENERGY      -668.807908174318
FINAL SINGLE POINT ENERGY      -668.807914538845
FINAL SINGLE POINT ENERGY      -668.807916306727
                    ***********************HURRAY********************

CARTESIAN COORDINATES (ANGSTROEM)
---------------------------------
  N     -7.838986    0.829151    0.178353
  C     -6.389519    0.820769    0.189765
  C     -5.961395    0.815479    1.664854
  O     -6.601108    1.450526    2.482911
  C     -5.801520    2.034360   -0.463492
  C     -6.467570    3.346461   -0.263499
  C     -5.589509    4.517451   -0.698120
  C     -6.330386    5.822609   -0.504952
  N     -5.481270    6.983734   -0.983031
  H     -5.080378    1.904899   -1.258301
  H     -6.752780    3.452678    0.789528
  H     -7.401204    3.369057   -0.844604
  H     -5.322510    4.395023   -1.752816
  H     -4.662763    4.520681   -0.116240
  H     -6.558657    6.019290    0.541521
  H     -7.251940    5.859587   -1.084033
  H     -5.956914    7.882379   -0.872977
  H     -5.244845    6.869728   -1.972189
  H     -8.308304    0.858201    1.070529
  C     -8.519871    0.922177   -0.991994
  N     -4.842844    0.123202    1.940598
  H     -4.418193   -0.409349    1.199833
  O     -7.934772    1.031043   -2.053423
  H     -4.601749    7.025252   -0.461606
  C     -4.275019    0.046396    3.274117
  H     -4.300839   -0.977778    3.644387
  H     -3.245225    0.401529    3.274157
  H     -4.875796    0.675400    3.924882
  C    -10.023298    0.866756   -0.893806
  H    -10.349315   -0.121052   -1.220192
  H    -10.391445    1.042080    0.115407
  H    -10.446315    1.597183   -1.579851
  H     -6.022535   -0.073159   -0.319975

 Multiplicity           Mult            ....    2
 Number of Electrons    NEL             ....  109
 Basis Dimension        Dim             ....  548

ORBITAL ENERGIES
----------------
                 SPIN UP ORBITALS
  NO   OCC          E(Eh)            E(eV)
   0   1.0000     -19.690014      -535.7925
   1   1.0000     -19.674187      -535.3618
   2   1.0000     -15.064242      -409.9189
   3   1.0000     -14.871316      -404.6691
   4   1.0000     -14.858161      -404.3111
   5   1.0000     -10.774862      -293.1989
   6   1.0000     -10.740590      -292.2663
   7   1.0000     -10.725454      -291.8544
   8   1.0000     -10.700028      -291.1626
   9   1.0000     -10.686835      -290.8036
  10   1.0000     -10.664771      -290.2032
  11   1.0000     -10.659019      -290.0466
  12   1.0000     -10.651929      -289.8537
  13   1.0000     -10.617788      -288.9247
  14   1.0000      -1.306390       -35.5487
  15   1.0000      -1.266039       -34.4507
  16   1.0000      -1.248180       -33.9647
  17   1.0000      -1.132380       -30.8136
  18   1.0000      -1.125896       -30.6372
  19   1.0000      -1.066097       -29.0100
  20   1.0000      -0.997875       -27.1536
  21   1.0000      -0.950113       -25.8539
  22   1.0000      -0.910097       -24.7650
  23   1.0000      -0.894743       -24.3472
  24   1.0000      -0.865987       -23.5647
  25   1.0000      -0.857532       -23.3346
  26   1.0000      -0.831507       -22.6265
  27   1.0000      -0.795425       -21.6446
  28   1.0000      -0.766645       -20.8615
  29   1.0000      -0.754633       -20.5346
  30   1.0000      -0.732730       -19.9386
  31   1.0000      -0.711270       -19.3546
  32   1.0000      -0.702790       -19.1239
  33   1.0000      -0.671317       -18.2675
  34   1.0000      -0.653097       -17.7717
  35   1.0000      -0.639283       -17.3958
  36   1.0000      -0.633927       -17.2500
  37   1.0000      -0.624075       -16.9820
  38   1.0000      -0.617829       -16.8120
  39   1.0000      -0.608762       -16.5653
  40   1.0000      -0.597438       -16.2571
  41   1.0000      -0.578435       -15.7400
  42   1.0000      -0.564214       -15.3530
  43   1.0000      -0.563611       -15.3366
  44   1.0000      -0.554154       -15.0793
  45   1.0000      -0.547065       -14.8864
  46   1.0000      -0.544412       -14.8142
  47   1.0000      -0.536607       -14.6018
  48   1.0000      -0.535935       -14.5835
  49   1.0000      -0.507041       -13.7973
  50   1.0000      -0.448321       -12.1994
  51   1.0000      -0.420979       -11.4554
  52   1.0000      -0.419708       -11.4208
  53   1.0000      -0.412645       -11.2286
  54   1.0000      -0.353148        -9.6097
  55   0.0000      -0.150252        -4.0886
  56   0.0000      -0.087300        -2.3755
  57   0.0000      -0.085471        -2.3258
  58   0.0000      -0.066254        -1.8029
  59   0.0000      -0.040270        -1.0958

                 SPIN DOWN ORBITALS
  NO   OCC          E(Eh)            E(eV)
   0   1.0000     -19.689795      -535.7865
   1   1.0000     -19.673710      -535.3489
   2   1.0000     -15.064248      -409.9190
   3   1.0000     -14.871088      -404.6629
   4   1.0000     -14.857718      -404.2991
   5   1.0000     -10.774867      -293.1990
   6   1.0000     -10.739902      -292.2476
   7   1.0000     -10.725475      -291.8550
   8   1.0000     -10.699883      -291.1586
   9   1.0000     -10.687460      -290.8206
  10   1.0000     -10.665461      -290.2219
  11   1.0000     -10.652087      -289.8580
  12   1.0000     -10.651934      -289.8539
  13   1.0000     -10.617742      -288.9234
  14   1.0000      -1.306392       -35.5487
  15   1.0000      -1.265033       -34.4233
  16   1.0000      -1.247205       -33.9382
  17   1.0000      -1.131434       -30.7879
  18   1.0000      -1.123624       -30.5754
  19   1.0000      -1.064034       -28.9538
  20   1.0000      -0.984966       -26.8023
  21   1.0000      -0.948635       -25.8137
  22   1.0000      -0.908762       -24.7287
  23   1.0000      -0.889104       -24.1937
  24   1.0000      -0.864783       -23.5319
  25   1.0000      -0.857510       -23.3340
  26   1.0000      -0.828221       -22.5370
  27   1.0000      -0.784433       -21.3455
  28   1.0000      -0.765894       -20.8410
  29   1.0000      -0.752838       -20.4858
  30   1.0000      -0.724941       -19.7266
  31   1.0000      -0.707512       -19.2524
  32   1.0000      -0.699552       -19.0358
  33   1.0000      -0.667601       -18.1663
  34   1.0000      -0.649760       -17.6809
  35   1.0000      -0.638237       -17.3673
  36   1.0000      -0.628022       -17.0894
  37   1.0000      -0.622242       -16.9321
  38   1.0000      -0.616220       -16.7682
  39   1.0000      -0.606586       -16.5060
  40   1.0000      -0.595342       -16.2001
  41   1.0000      -0.574408       -15.6304
  42   1.0000      -0.562141       -15.2966
  43   1.0000      -0.560589       -15.2544
  44   1.0000      -0.549279       -14.9466
  45   1.0000      -0.546480       -14.8705
  46   1.0000      -0.542928       -14.7738
  47   1.0000      -0.534038       -14.5319
  48   1.0000      -0.532161       -14.4808
  49   1.0000      -0.505272       -13.7492
  50   1.0000      -0.437969       -11.9178
  51   1.0000      -0.418548       -11.3893
  52   1.0000      -0.415660       -11.3107
  53   1.0000      -0.410202       -11.1622
  54   0.0000      -0.150279        -4.0893
  55   0.0000      -0.123302        -3.3552
  56   0.0000      -0.087791        -2.3889
  57   0.0000      -0.085731        -2.3328
  58   0.0000      -0.068752        -1.8708

MULLIKEN ATOMIC CHARGES AND SPIN POPULATIONS
--------------------------------------------
   0 N :   -0.382880    0.020565
   1 C :   -0.077135   -0.058946
   2 C :    0.361747    0.015907
   3 O :   -0.414263    0.009061
   4 C :   -0.203532    1.043727
   5 C :   -0.304381   -0.108989
   6 C :   -0.322870    0.019225
   7 C :   -0.233573    0.002215
   8 N :   -0.342195   -0.000655
   9 H :    0.176375   -0.041038
  10 H :    0.204873    0.018928
  11 H :    0.175872    0.050793
  12 H :    0.184824   -0.002334
  13 H :    0.181755   -0.002216
  14 H :    0.220271   -0.000103
  15 H :    0.218220   -0.000636
  16 H :    0.340664    0.000067
  17 H :    0.335873    0.000105
  18 H :    0.270452   -0.001133
  19 C :    0.349892    0.003810
  20 N :   -0.348409    0.016819
  21 H :    0.252773   -0.000086
  22 O :   -0.390146    0.005814
  23 H :    0.335172    0.000165
  24 C :   -0.312333    0.000157
  25 H :    0.162380    0.000132
  26 H :    0.151025    0.001054
  27 H :    0.184261    0.000070
  28 C :   -0.443065    0.002547
  29 H :    0.176586    0.000013
  30 H :    0.137124    0.000220
  31 H :    0.157592    0.000482
  32 H :    0.197049    0.004263
Sum of atomic charges         :    1.0000000

LOEWDIN ATOMIC CHARGES AND SPIN POPULATIONS
-------------------------------------------
   0 N :    0.145063    0.015351
   1 C :   -0.258322    0.055107
   2 C :   -0.444732    0.027389
   3 O :    0.056072    0.008688
   4 C :   -0.089482    0.745444
   5 C :   -0.265573    0.060957
   6 C :   -0.270376    0.005460
   7 C :   -0.239883    0.001544
   8 N :    0.161707   -0.000028
   9 H :    0.137688    0.001062
  10 H :    0.160592    0.012035
  11 H :    0.159058    0.031859
  12 H :    0.151004   -0.000089
  13 H :    0.149576    0.000689
  14 H :    0.154459    0.000117
  15 H :    0.154183    0.000319
  16 H :    0.216950    0.000049
  17 H :    0.218554    0.000029
  18 H :    0.196788    0.000047
  19 C :   -0.485949    0.002965
  20 N :    0.110338    0.011192
  21 H :    0.190460    0.000338
  22 O :    0.068418    0.012006
  23 H :    0.218241    0.000061
  24 C :   -0.291303    0.001343
  25 H :    0.122225    0.000090
  26 H :    0.118452    0.000684
  27 H :    0.135188    0.000051
  28 C :   -0.256368    0.002192
  29 H :    0.147633    0.000055
  30 H :    0.126140    0.000121
  31 H :    0.138524    0.000327
  32 H :    0.164673    0.002548

  Mayer bond orders larger than 0.100000
B(  0-N ,  1-C ) :   0.9263 B(  0-N , 18-H ) :   0.8909 B(  0-N , 19-C ) :   1.1854
B(  1-C ,  2-C ) :   0.8992 B(  1-C ,  4-C ) :   0.9897 B(  1-C , 32-H ) :   0.9754
B(  2-C ,  3-O ) :   1.8959 B(  2-C , 20-N ) :   1.2673 B(  4-C ,  5-C ) :   0.9307
B(  4-C ,  9-H ) :   0.9484 B(  5-C ,  6-C ) :   0.9154 B(  5-C , 10-H ) :   0.9796
B(  5-C , 11-H ) :   0.9220 B(  6-C ,  7-C ) :   0.8931 B(  6-C , 12-H ) :   0.9674
B(  6-C , 13-H ) :   0.9717 B(  7-C ,  8-N ) :   0.8143 B(  7-C , 14-H ) :   0.9650
B(  7-C , 15-H ) :   0.9661 B(  8-N , 16-H ) :   0.8777 B(  8-N , 17-H ) :   0.8751
B(  8-N , 23-H ) :   0.8754 B( 19-C , 22-O ) :   1.9297 B( 19-C , 28-C ) :   0.9245
B( 20-N , 21-H ) :   0.9138 B( 20-N , 24-C ) :   0.8903 B( 24-C , 25-H ) :   0.9663
B( 24-C , 26-H ) :   0.9665 B( 24-C , 27-H ) :   0.9610 B( 28-C , 29-H ) :   0.9462
B( 28-C , 30-H ) :   0.9837 B( 28-C , 31-H ) :   0.9641

FINAL SINGLE POINT ENERGY      -668.807916732345

DIPOLE MOMENT
-------------
                                X             Y             Z
Electronic contribution:     -1.13433      -5.66473      -0.27369
Nuclear contribution   :      3.37792      12.29183      -0.79872
                        -----------------------------------------
Total Dipole Moment    :      2.24359       6.62711      -1.07241
                        -----------------------------------------
Magnitude (a.u.)       :      7.07830
Magnitude (Debye)      :     17.99161

VIBRATIONAL FREQUENCIES
-----------------------

Scaling factor for frequencies =  1.000000000  (already applied!)

   0:         0.00 cm**-1
   1:         0.00 cm**-1
   2:         0.00 cm**-1
   3:         0.00 cm**-1
   4:         0.00 cm**-1
   5:         0.00 cm**-1
   6:        34.86 cm**-1
   7:        48.06 cm**-1
   8:        68.11 cm**-1
   9:        80.66 cm**-1
  10:        90.46 cm**-1
  11:        98.89 cm**-1
  12:       100.48 cm**-1
  13:       113.55 cm**-1
  14:       125.37 cm**-1
  15:       128.23 cm**-1
  16:       139.74 cm**-1
  17:       175.02 cm**-1
  18:       224.81 cm**-1
  19:       247.34 cm**-1
  20:       257.04 cm**-1
  21:       268.23 cm**-1
  22:       291.32 cm**-1
  23:       349.00 cm**-1
  24:       384.09 cm**-1
  25:       405.20 cm**-1
  26:       440.69 cm**-1
  27:       468.97 cm**-1
  28:       494.50 cm**-1
  29:       518.94 cm**-1
  30:       579.08 cm**-1
  31:       646.21 cm**-1
  32:       720.46 cm**-1
  33:       732.81 cm**-1
  34:       760.37 cm**-1
  35:       804.62 cm**-1
  36:       837.39 cm**-1
  37:       894.84 cm**-1
  38:       911.56 cm**-1
  39:       947.36 cm**-1
  40:       961.01 cm**-1
  41:       983.02 cm**-1
  42:      1016.61 cm**-1
  43:      1027.11 cm**-1
  44:      1061.66 cm**-1
  45:      1066.37 cm**-1
  46:      1074.14 cm**-1
  47:      1095.70 cm**-1
  48:      1134.01 cm**-1
  49:      1159.68 cm**-1
  50:      1170.36 cm**-1
  51:      1181.07 cm**-1
  52:      1194.75 cm**-1
  53:      1233.85 cm**-1
  54:      1264.53 cm**-1
  55:      1274.86 cm**-1
  56:      1289.92 cm**-1
  57:      1325.68 cm**-1
  58:      1332.47 cm**-1
  59:      1354.60 cm**-1
  60:      1360.47 cm**-1
  61:      1376.68 cm**-1
  62:      1407.27 cm**-1
  63:      1417.19 cm**-1
  64:      1435.60 cm**-1
  65:      1450.96 cm**-1
  66:      1470.77 cm**-1
  67:      1471.54 cm**-1
  68:      1487.77 cm**-1
  69:      1493.68 cm**-1
  70:      1504.35 cm**-1
  71:      1507.11 cm**-1
  72:      1507.62 cm**-1
  73:      1515.20 cm**-1
  74:      1538.61 cm**-1
  75:      1594.66 cm**-1
  76:      1661.89 cm**-1
  77:      1662.13 cm**-1
  78:      1774.31 cm**-1
  79:      1787.06 cm**-1
  80:      3004.15 cm**-1
  81:      3054.54 cm**-1
  82:      3067.13 cm**-1
  83:      3086.47 cm**-1
  84:      3089.28 cm**-1
  85:      3090.27 cm**-1
  86:      3107.56 cm**-1
  87:      3118.81 cm**-1
  88:      3157.57 cm**-1
  89:      3167.88 cm**-1
  90:      3181.42 cm**-1
  91:      3189.21 cm**-1
  92:      3198.09 cm**-1
  93:      3222.93 cm**-1
  94:      3412.78 cm**-1
  95:      3496.41 cm**-1
  96:      3504.00 cm**-1
  97:      3635.78 cm**-1
  98:      3655.99 cm**-1

IR SPECTRUM
-----------

 Mode   freq       eps      Int      T**2         TX        TY        TZ
       cm**-1   L/(mol*cm) km/mol    a.u.
----------------------------------------------------------------------------
  6:     34.86   0.002383   12.04  0.021337  (-0.080016 -0.007105 -0.121999)
  7:     48.06   0.001020    5.16  0.006625  ( 0.059878  0.024421 -0.049430)
  8:     68.11   0.001427    7.21  0.006540  (-0.058603 -0.030821  0.046428)
  9:     80.66   0.003623   18.31  0.014015  (-0.002497  0.117027 -0.017713)
 10:     90.46   0.000301    1.52  0.001038  (-0.023113 -0.006120 -0.021586)
 11:     98.89   0.000390    1.97  0.001232  (-0.010373 -0.031424 -0.011703)
 12:    100.48   0.000550    2.78  0.001709  (-0.004562 -0.039533 -0.011197)
 13:    113.55   0.000666    3.36  0.001829  ( 0.025194  0.026015  0.022758)
 14:    125.37   0.000202    1.02  0.000502  (-0.008284 -0.020811 -0.000786)
 15:    128.23   0.001601    8.09  0.003897  ( 0.052808  0.028250  0.017610)
 16:    139.74   0.001190    6.01  0.002658  ( 0.009914  0.033231  0.038144)
 17:    175.02   0.003000   15.16  0.005350  ( 0.052231  0.048556  0.016250)
 18:    224.81   0.003347   16.92  0.004646  (-0.015228  0.061425 -0.025327)
 19:    247.34   0.000377    1.90  0.000475  ( 0.017127  0.002886  0.013168)
 20:    257.04   0.000021    0.11  0.000026  ( 0.003710 -0.003285  0.001036)
 21:    268.23   0.000796    4.02  0.000926  (-0.029352  0.006302 -0.004931)
 22:    291.32   0.000090    0.45  0.000096  ( 0.005903 -0.007181  0.003154)
 23:    349.00   0.000144    0.73  0.000128  (-0.011295  0.000156  0.000944)
 24:    384.09   0.004654   23.52  0.003782  (-0.041781  0.001989 -0.045078)
 25:    405.20   0.001211    6.12  0.000932  (-0.029079 -0.005938  0.007171)
 26:    440.69   0.002283   11.54  0.001617  (-0.033612 -0.001003 -0.022041)
 27:    468.97   0.004651   23.50  0.003095  (-0.041517 -0.035320  0.011118)
 28:    494.50   0.011414   57.68  0.007203  ( 0.024213  0.081160 -0.005461)
 29:    518.94   0.015820   79.95  0.009514  ( 0.039917  0.084569 -0.027719)
 30:    579.08   0.004301   21.74  0.002318  ( 0.042091 -0.007211  0.022230)
 31:    646.21   0.000659    3.33  0.000318  (-0.015714 -0.006215 -0.005708)
 32:    720.46   0.000906    4.58  0.000392  ( 0.005682  0.016029  0.010160)
 33:    732.81   0.000271    1.37  0.000115  (-0.006030  0.004554 -0.007632)
 34:    760.37   0.001423    7.19  0.000584  ( 0.008673 -0.002129  0.022459)
 35:    804.62   0.000090    0.46  0.000035  (-0.000792 -0.004459  0.003815)
 36:    837.39   0.001229    6.21  0.000458  ( 0.008529  0.007190  0.018268)
 37:    894.84   0.003657   18.48  0.001275  (-0.005460  0.034969 -0.004754)
 38:    911.56   0.000810    4.09  0.000277  ( 0.012412  0.011094 -0.000433)
 39:    947.36   0.002014   10.18  0.000663  (-0.009821  0.020808 -0.011575)
 40:    961.01   0.002582   13.05  0.000838  (-0.006890  0.019848  0.019927)
 41:    983.02   0.000864    4.36  0.000274  (-0.015588  0.001359  0.005418)
 42:   1016.61   0.000686    3.46  0.000210  ( 0.006158  0.007444 -0.010823)
 43:   1027.11   0.001580    7.98  0.000480  (-0.016705 -0.007944 -0.011741)
 44:   1061.66   0.001088    5.50  0.000320  ( 0.001506 -0.017797  0.000930)
 45:   1066.37   0.001286    6.50  0.000376  ( 0.016354  0.010100  0.002636)
 46:   1074.14   0.001599    8.08  0.000465  ( 0.009390 -0.018124  0.006928)
 47:   1095.70   0.000730    3.69  0.000208  (-0.000426 -0.013133 -0.005928)
 48:   1134.01   0.002412   12.19  0.000664  (-0.011651  0.022799  0.002877)
 49:   1159.68   0.000176    0.89  0.000047  (-0.006237 -0.001759  0.002323)
 50:   1170.36   0.000695    3.51  0.000185  (-0.009049  0.009865  0.002450)
 51:   1181.07   0.008789   44.41  0.002322  (-0.033039  0.027915 -0.021244)
 52:   1194.75   0.003206   16.20  0.000837  ( 0.026797 -0.002832  0.010546)
 53:   1233.85   0.007532   38.07  0.001905  (-0.029914  0.013586 -0.028733)
 54:   1264.53   0.000564    2.85  0.000139  (-0.008672  0.002150 -0.007704)
 55:   1274.86   0.002010   10.16  0.000492  ( 0.013723 -0.007375  0.015788)
 56:   1289.92   0.003657   18.48  0.000885  (-0.018504 -0.023168  0.002342)
 57:   1325.68   0.007304   36.91  0.001719  (-0.018878  0.000721 -0.036910)
 58:   1332.47   0.008892   44.94  0.002082  (-0.023430  0.003566 -0.038997)
 59:   1354.60   0.000103    0.52  0.000024  ( 0.001749 -0.003030 -0.003394)
 60:   1360.47   0.002321   11.73  0.000532  ( 0.019532 -0.000581  0.012268)
 61:   1376.68   0.001777    8.98  0.000403  (-0.001599  0.010698 -0.016904)
 62:   1407.27   0.005380   27.19  0.001193  (-0.031411 -0.003003 -0.014051)
 63:   1417.19   0.003071   15.52  0.000676  (-0.011397 -0.022462  0.006461)
 64:   1435.60   0.000105    0.53  0.000023  (-0.003076  0.003640 -0.000074)
 65:   1450.96   0.004515   22.82  0.000971  (-0.021234  0.019935  0.011079)
 66:   1470.77   0.001474    7.45  0.000313  (-0.009764  0.013010 -0.006947)
 67:   1471.54   0.006316   31.92  0.001339  ( 0.013122 -0.015225  0.030583)
 68:   1487.77   0.005766   29.14  0.001209  ( 0.014405  0.008353  0.030531)
 69:   1493.68   0.003473   17.55  0.000726  ( 0.014044  0.020255 -0.010864)
 70:   1504.35   0.003317   16.76  0.000688  (-0.021964 -0.012298 -0.007379)
 71:   1507.11   0.028554  144.30  0.005912  (-0.021610 -0.062237  0.039648)
 72:   1507.62   0.010823   54.70  0.002240  ( 0.038482  0.018392  0.020521)
 73:   1515.20   0.002805   14.18  0.000578  ( 0.022176 -0.004472 -0.008120)
 74:   1538.61   0.070202  354.77  0.014239  ( 0.097580 -0.003266  0.068601)
 75:   1594.66   0.044293  223.84  0.008668  ( 0.064644 -0.048033  0.046709)
 76:   1661.89   0.010446   52.79  0.001961  ( 0.021714  0.001583  0.038567)
 77:   1662.13   0.007423   37.51  0.001394  ( 0.021972 -0.027134 -0.013217)
 78:   1774.31   0.071022  358.92  0.012491  ( 0.057669 -0.018191 -0.093993)
 79:   1787.06   0.030138  152.30  0.005263  (-0.048808  0.053028 -0.008280)
 80:   3004.15   0.002457   12.41  0.000255  ( 0.010660 -0.011233  0.003918)
 81:   3054.54   0.002536   12.82  0.000259  ( 0.012319  0.008693 -0.005636)
 82:   3067.13   0.000143    0.72  0.000015  ( 0.003309 -0.000593 -0.001790)
 83:   3086.47   0.007205   36.41  0.000728  (-0.019150  0.010072 -0.016134)
 84:   3089.28   0.000189    0.95  0.000019  (-0.001174  0.000222  0.004199)
 85:   3090.27   0.002067   10.45  0.000209  (-0.009800  0.010612 -0.000321)
 86:   3107.56   0.001048    5.30  0.000105  ( 0.005060  0.001292  0.008830)
 87:   3118.81   0.000203    1.03  0.000020  ( 0.003675 -0.002239 -0.001334)
 88:   3157.57   0.001620    8.19  0.000160  ( 0.007977  0.009497 -0.002504)
 89:   3167.88   0.000471    2.38  0.000046  ( 0.004890 -0.001627 -0.004454)
 90:   3181.42   0.000026    0.13  0.000003  (-0.000781 -0.000412 -0.001313)
 91:   3189.21   0.000624    3.15  0.000061  (-0.001662 -0.001304  0.007522)
 92:   3198.09   0.000003    0.02  0.000000  ( 0.000104  0.000444  0.000347)
 93:   3222.93   0.000423    2.14  0.000041  (-0.005702 -0.000801  0.002788)
 94:   3412.78   0.012138   61.34  0.001110  ( 0.015183  0.027614 -0.010809)
 95:   3496.41   0.021391  108.10  0.001909  (-0.012076 -0.009976 -0.040790)
 96:   3504.00   0.022985  116.16  0.002047  (-0.033607  0.030095  0.003447)
 97:   3635.78   0.016307   82.41  0.001400  ( 0.003994  0.003291 -0.037052)
 98:   3655.99   0.010932   55.25  0.000933  (-0.019479  0.019242  0.013544)

--------------------------
THERMOCHEMISTRY AT 298.15K
--------------------------

Temperature         ... 298.15 K
Pressure            ... 1.00 atm
Total Mass          ... 201.27 AMU

Throughout the following assumptions are being made:
  (1) The electronic state is orbitally nondegenerate
      but the spin degeneracy is treated
  (2) There are no thermally accessible electronically excited states
  (3) Hindered rotations indicated by low frequency modes are not
      treated as such but are treated as vibrations and this may
      cause some error
  (4) All equations used are the standard statistical mechanics
      equations for an ideal gas
  (5) All vibrations are strictly harmonic

freq.      34.86  E(vib)   ...       0.54
freq.      48.06  E(vib)   ...       0.53
freq.      68.11  E(vib)   ...       0.50
freq.      80.66  E(vib)   ...       0.48
freq.      90.46  E(vib)   ...       0.47
freq.      98.89  E(vib)   ...       0.46
freq.     100.48  E(vib)   ...       0.46
freq.     113.55  E(vib)   ...       0.44
freq.     125.37  E(vib)   ...       0.43
freq.     128.23  E(vib)   ...       0.43
freq.     139.74  E(vib)   ...       0.42
freq.     175.02  E(vib)   ...       0.38
freq.     224.81  E(vib)   ...       0.33
freq.     247.34  E(vib)   ...       0.31
freq.     257.04  E(vib)   ...       0.30
freq.     268.23  E(vib)   ...       0.29
freq.     291.32  E(vib)   ...       0.27
freq.     349.00  E(vib)   ...       0.23
freq.     384.09  E(vib)   ...       0.20
freq.     405.20  E(vib)   ...       0.19
freq.     440.69  E(vib)   ...       0.17
freq.     468.97  E(vib)   ...       0.16
freq.     494.50  E(vib)   ...       0.14
freq.     518.94  E(vib)   ...       0.13
freq.     579.08  E(vib)   ...       0.11
freq.     646.21  E(vib)   ...       0.09
freq.     720.46  E(vib)   ...       0.07
freq.     732.81  E(vib)   ...       0.06
freq.     760.37  E(vib)   ...       0.06
freq.     804.62  E(vib)   ...       0.05
freq.     837.39  E(vib)   ...       0.04
freq.     894.84  E(vib)   ...       0.03
freq.     911.56  E(vib)   ...       0.03
freq.     947.36  E(vib)   ...       0.03
freq.     961.01  E(vib)   ...       0.03
freq.     983.02  E(vib)   ...       0.02
freq.    1016.61  E(vib)   ...       0.02
freq.    1027.11  E(vib)   ...       0.02
freq.    1061.66  E(vib)   ...       0.02
freq.    1066.37  E(vib)   ...       0.02
freq.    1074.14  E(vib)   ...       0.02
freq.    1095.70  E(vib)   ...       0.02
freq.    1134.01  E(vib)   ...       0.01
freq.    1159.68  E(vib)   ...       0.01
freq.    1170.36  E(vib)   ...       0.01
freq.    1181.07  E(vib)   ...       0.01
freq.    1194.75  E(vib)   ...       0.01
freq.    1233.85  E(vib)   ...       0.01
freq.    1264.53  E(vib)   ...       0.01
freq.    1274.86  E(vib)   ...       0.01
freq.    1289.92  E(vib)   ...       0.01
freq.    1325.68  E(vib)   ...       0.01
freq.    1332.47  E(vib)   ...       0.01
freq.    1354.60  E(vib)   ...       0.01
freq.    1360.47  E(vib)   ...       0.01
freq.    1376.68  E(vib)   ...       0.01
freq.    1407.27  E(vib)   ...       0.00
freq.    1417.19  E(vib)   ...       0.00
freq.    1435.60  E(vib)   ...       0.00
freq.    1450.96  E(vib)   ...       0.00
freq.    1470.77  E(vib)   ...       0.00
freq.    1471.54  E(vib)   ...       0.00
freq.    1487.77  E(vib)   ...       0.00
freq.    1493.68  E(vib)   ...       0.00
freq.    1504.35  E(vib)   ...       0.00
freq.    1507.11  E(vib)   ...       0.00
freq.    1507.62  E(vib)   ...       0.00
freq.    1515.20  E(vib)   ...       0.00
freq.    1538.61  E(vib)   ...       0.00
freq.    1594.66  E(vib)   ...       0.00
freq.    1661.89  E(vib)   ...       0.00
freq.    1662.13  E(vib)   ...       0.00
freq.    1774.31  E(vib)   ...       0.00
freq.    1787.06  E(vib)   ...       0.00
freq.    3004.15  E(vib)   ...       0.00
freq.    3054.54  E(vib)   ...       0.00
freq.    3067.13  E(vib)   ...       0.00
freq.    3086.47  E(vib)   ...       0.00
freq.    3089.28  E(vib)   ...       0.00
freq.    3090.27  E(vib)   ...       0.00
freq.    3107.56  E(vib)   ...       0.00
freq.    3118.81  E(vib)   ...       0.00
freq.    3157.57  E(vib)   ...       0.00
freq.    3167.88  E(vib)   ...       0.00
freq.    3181.42  E(vib)   ...       0.00
freq.    3189.21  E(vib)   ...       0.00
freq.    3198.09  E(vib)   ...       0.00
freq.    3222.93  E(vib)   ...       0.00
freq.    3412.78  E(vib)   ...       0.00
freq.    3496.41  E(vib)   ...       0.00
freq.    3504.00  E(vib)   ...       0.00
freq.    3635.78  E(vib)   ...       0.00
freq.    3655.99  E(vib)   ...       0.00

------------
INNER ENERGY
------------

The inner energy is: U= E(el) + E(ZPE) + E(vib) + E(rot) + E(trans)
    E(el)   - is the total energy from the electronic structure calculation
              = E(kin-el) + E(nuc-el) + E(el-el) + E(nuc-nuc)
    E(ZPE)  - the the zero temperature vibrational energy from the frequency calculation
    E(vib)  - the the finite temperature correction to E(ZPE) due to population
              of excited vibrational states
    E(rot)  - is the rotational thermal energy
    E(trans)- is the translational thermal energy

Summary of contributions to the inner energy U:
Electronic energy                ...   -668.80791673 Eh
Zero point energy                ...      0.29264158 Eh     183.63 kcal/mol
Thermal vibrational correction   ...      0.01460948 Eh       9.17 kcal/mol
Thermal rotational correction    ...      0.00141627 Eh       0.89 kcal/mol
Thermal translational correction ...      0.00141627 Eh       0.89 kcal/mol
-----------------------------------------------------------------------
Total thermal energy                   -668.49783312 Eh

Summary of corrections to the electronic energy:
(perhaps to be used in another calculation)
Total thermal correction                  0.01744203 Eh      10.95 kcal/mol
Non-thermal (ZPE) correction              0.29264158 Eh     183.63 kcal/mol
-----------------------------------------------------------------------
Total correction                          0.31008361 Eh     194.58 kcal/mol

--------
ENTHALPY
--------

The enthalpy is H = U + kB*T
                kB is Boltzmann's constant
Total free energy                 ...   -668.49783312 Eh
Thermal Enthalpy correction       ...      0.00094421 Eh       0.59 kcal/mol
-----------------------------------------------------------------------
Total Enthalpy                    ...   -668.49688891 Eh

Note: Only C1 symmetry has been detected, increase convergence thresholds
      if your molecule has a higher symmetry. Symmetry factor of 1.0 is
      used for the rotational entropy correction.

Note: Rotational entropy computed according to Herzberg

Rotational constants in cm-1:     0.020640     0.013756     0.009296

                             ****ORCA TERMINATED NORMALLY****
TOTAL RUN TIME: 0 days 0 hours 23 minutes 27 seconds 159 msec
