                         Program Version 5.0.4 -  RELEASE  -
|  1> ! B3LYP EPR-II OPT
|  2> %pal nprocs 16 end
|  3> *XYZFile 1 2 model.xyz
|  4>
|  5>                          ****END OF INPUT****
 Total Charge           Charge          ....    1
 Multiplicity           Mult            ....    2
 Number of Electrons    NEL             ....  109
FINAL SINGLE POINT ENERGY      -668.585628255335
FINAL SINGLE POINT ENERGY      -668.587064118748
FINAL SINGLE POINT ENERGY      -668.587125695630
FINAL SINGLE POINT ENERGY      -668.587148170854
FINAL SINGLE POINT ENERGY      -668.587160094214
FINAL SINGLE POINT ENERGY      -668.587169880552
FINAL SINGLE POINT ENERGY      -668.587178304110
FINAL SINGLE POINT ENERGY      -668.587192225896
FINAL SINGLE POINT ENERGY      -668.587207582672
FINAL SINGLE POINT ENERGY      -668.587224557695
FINAL SINGLE POINT ENERGY      -668.587246457607
FINAL SINGLE POINT ENERGY      -668.587281176097
FINAL SINGLE POINT ENERGY      -668.587323596809
FINAL SINGLE POINT ENERGY      -668.587357000459
FINAL SINGLE POINT ENERGY      -668.587383565398
FINAL SINGLE POINT ENERGY      -668.587392649817
FINAL SINGLE POINT ENERGY      -668.587406956561
FINAL SINGLE POINT ENERGY      -668.587411326513
FINAL SINGLE POINT ENERGY      -668.587412397653
                    ***********************HURRAY********************

CARTESIAN COORDINATES (ANGSTROEM)
---------------------------------
  N     -7.851626    0.799444    0.170181
  C     -6.390469    0.844836    0.182893
  C     -5.965356    0.818841    1.676719
  O     -6.601538    1.465768    2.511323
  C     -5.817132    2.080472   -0.467175
  C     -6.470127    3.415446   -0.264898
  C     -5.566508    4.587081   -0.705116
  C     -6.297812    5.918138   -0.538914
  N     -5.417382    7.081994   -1.013077
  H     -5.060965    1.958819   -1.237713
  H     -6.754472    3.532009    0.789594
  H     -7.405948    3.454877   -0.847108
  H     -5.284452    4.449332   -1.757662
  H     -4.645374    4.588312   -0.107926
  H     -6.544967    6.132026    0.503548
  H     -7.209766    5.968579   -1.138315
  H     -5.888980    7.986498   -0.913089
  H     -5.164230    6.963603   -1.999371
  H     -8.315898    0.853298    1.066453
  C     -8.564552    0.838758   -0.999714
  N     -4.853318    0.089083    1.952542
  H     -4.449509   -0.459995    1.208327
  O     -8.007595    0.946558   -2.092879
  H     -4.545030    7.118187   -0.476113
  C     -4.288345   -0.033807    3.295923
  H     -4.366477   -1.063815    3.656948
  H     -3.236744    0.268291    3.299944
  H     -4.854967    0.618495    3.960012
  C    -10.076216    0.711913   -0.860585
  H    -10.369793   -0.282560   -1.210530
  H    -10.430992    0.840499    0.165323
  H    -10.555404    1.445026   -1.513034
  H     -5.996827   -0.034264   -0.340772

 Multiplicity           Mult            ....    2
 Number of Electrons    NEL             ....  109
 Basis Dimension        Dim             ....  371

ORBITAL ENERGIES
----------------
                 SPIN UP ORBITALS
  NO   OCC          E(Eh)            E(eV)
   0   1.0000     -19.206625      -522.6388
   1   1.0000     -19.188736      -522.1521
   2   1.0000     -14.645933      -398.5361
   3   1.0000     -14.456800      -393.3895
   4   1.0000     -14.440539      -392.9471
   5   1.0000     -10.424047      -283.6527
   6   1.0000     -10.390974      -282.7528
   7   1.0000     -10.374253      -282.2978
   8   1.0000     -10.351296      -281.6731
   9   1.0000     -10.336471      -281.2697
  10   1.0000     -10.315843      -280.7084
  11   1.0000     -10.306480      -280.4536
  12   1.0000     -10.299292      -280.2580
  13   1.0000     -10.265066      -279.3266
  14   1.0000      -1.192538       -32.4506
  15   1.0000      -1.130445       -30.7610
  16   1.0000      -1.111034       -30.2328
  17   1.0000      -1.015035       -27.6205
  18   1.0000      -1.006404       -27.3857
  19   1.0000      -0.958941       -26.0941
  20   1.0000      -0.892260       -24.2796
  21   1.0000      -0.849114       -23.1056
  22   1.0000      -0.808052       -21.9882
  23   1.0000      -0.801861       -21.8197
  24   1.0000      -0.778881       -21.1944
  25   1.0000      -0.778038       -21.1715
  26   1.0000      -0.747205       -20.3325
  27   1.0000      -0.707115       -19.2416
  28   1.0000      -0.679211       -18.4823
  29   1.0000      -0.673477       -18.3262
  30   1.0000      -0.651921       -17.7397
  31   1.0000      -0.633260       -17.2319
  32   1.0000      -0.619135       -16.8475
  33   1.0000      -0.586211       -15.9516
  34   1.0000      -0.575097       -15.6492
  35   1.0000      -0.559619       -15.2280
  36   1.0000      -0.555256       -15.1093
  37   1.0000      -0.541312       -14.7299
  38   1.0000      -0.539948       -14.6927
  39   1.0000      -0.531466       -14.4619
  40   1.0000      -0.518188       -14.1006
  41   1.0000      -0.505310       -13.7502
  42   1.0000      -0.491537       -13.3754
  43   1.0000      -0.486883       -13.2488
  44   1.0000      -0.485167       -13.2021
  45   1.0000      -0.478070       -13.0090
  46   1.0000      -0.473506       -12.8847
  47   1.0000      -0.467149       -12.7118
  48   1.0000      -0.461034       -12.5454
  49   1.0000      -0.432407       -11.7664
  50   1.0000      -0.368380       -10.0241
  51   1.0000      -0.352682        -9.5970
  52   1.0000      -0.342454        -9.3186
  53   1.0000      -0.336820        -9.1653
  54   1.0000      -0.293893        -7.9972
  55   0.0000      -0.184416        -5.0182
  56   0.0000      -0.116399        -3.1674
  57   0.0000      -0.109982        -2.9928
  58   0.0000      -0.081887        -2.2283
  59   0.0000      -0.077103        -2.0981

                 SPIN DOWN ORBITALS
  NO   OCC          E(Eh)            E(eV)
   0   1.0000     -19.206200      -522.6273
   1   1.0000     -19.188229      -522.1382
   2   1.0000     -14.645938      -398.5362
   3   1.0000     -14.456480      -393.3808
   4   1.0000     -14.439846      -392.9282
   5   1.0000     -10.424045      -283.6527
   6   1.0000     -10.390046      -282.7275
   7   1.0000     -10.374265      -282.2981
   8   1.0000     -10.351116      -281.6682
   9   1.0000     -10.337275      -281.2915
  10   1.0000     -10.316714      -280.7320
  11   1.0000     -10.299290      -280.2579
  12   1.0000     -10.292748      -280.0799
  13   1.0000     -10.264979      -279.3243
  14   1.0000      -1.192537       -32.4506
  15   1.0000      -1.129422       -30.7331
  16   1.0000      -1.110172       -30.2093
  17   1.0000      -1.014197       -27.5977
  18   1.0000      -1.004365       -27.3302
  19   1.0000      -0.957632       -26.0585
  20   1.0000      -0.881480       -23.9863
  21   1.0000      -0.847812       -23.0701
  22   1.0000      -0.806923       -21.9575
  23   1.0000      -0.797835       -21.7102
  24   1.0000      -0.778865       -21.1940
  25   1.0000      -0.776036       -21.1170
  26   1.0000      -0.745004       -20.2726
  27   1.0000      -0.697296       -18.9744
  28   1.0000      -0.678549       -18.4643
  29   1.0000      -0.672928       -18.3113
  30   1.0000      -0.644984       -17.5509
  31   1.0000      -0.631946       -17.1961
  32   1.0000      -0.615772       -16.7560
  33   1.0000      -0.583549       -15.8792
  34   1.0000      -0.572857       -15.5882
  35   1.0000      -0.556237       -15.1360
  36   1.0000      -0.554369       -15.0851
  37   1.0000      -0.539234       -14.6733
  38   1.0000      -0.538371       -14.6498
  39   1.0000      -0.530046       -14.4233
  40   1.0000      -0.517025       -14.0690
  41   1.0000      -0.501302       -13.6411
  42   1.0000      -0.488443       -13.2912
  43   1.0000      -0.483479       -13.1561
  44   1.0000      -0.483287       -13.1509
  45   1.0000      -0.477832       -13.0025
  46   1.0000      -0.472066       -12.8456
  47   1.0000      -0.463640       -12.6163
  48   1.0000      -0.459460       -12.5026
  49   1.0000      -0.431058       -11.7297
  50   1.0000      -0.359651        -9.7866
  51   1.0000      -0.351003        -9.5513
  52   1.0000      -0.340250        -9.2587
  53   1.0000      -0.332658        -9.0521
  54   0.0000      -0.184467        -5.0196
  55   0.0000      -0.160503        -4.3675
  56   0.0000      -0.116132        -3.1601
  57   0.0000      -0.109726        -2.9858
  58   0.0000      -0.081798        -2.2258

MULLIKEN ATOMIC CHARGES AND SPIN POPULATIONS
--------------------------------------------
   0 N :   -0.137716    0.021319
   1 C :   -0.096230   -0.056302
   2 C :    0.057238    0.022862
   3 O :   -0.325017    0.015594
   4 C :   -0.074431    0.980803
   5 C :   -0.204798   -0.052016
   6 C :   -0.279642    0.005097
   7 C :   -0.286336   -0.000345
   8 N :   -0.369878    0.000013
   9 H :    0.101626   -0.049904
  10 H :    0.180972    0.020042
  11 H :    0.160006    0.050246
  12 H :    0.163084   -0.000004
  13 H :    0.166399    0.000653
  14 H :    0.221638    0.000158
  15 H :    0.219585    0.000180
  16 H :    0.333874    0.000110
  17 H :    0.335387    0.000063
  18 H :    0.255212   -0.000756
  19 C :    0.169376   -0.000285
  20 N :   -0.088156    0.015257
  21 H :    0.234823   -0.000251
  22 O :   -0.310272    0.013192
  23 H :    0.334665    0.000018
  24 C :   -0.447095   -0.000097
  25 H :    0.178637    0.000228
  26 H :    0.167583    0.001171
  27 H :    0.198784    0.000251
  28 C :   -0.541959    0.004031
  29 H :    0.199101   -0.000235
  30 H :    0.151169    0.000153
  31 H :    0.183721    0.000588
  32 H :    0.148653    0.008163
Sum of atomic charges         :    1.0000000

LOEWDIN ATOMIC CHARGES AND SPIN POPULATIONS
-------------------------------------------
   0 N :    0.057902    0.018924
   1 C :   -0.050635    0.013084
   2 C :   -0.096359    0.032446
   3 O :   -0.195955    0.014974
   4 C :   -0.018256    0.800432
   5 C :   -0.062704    0.008412
   6 C :   -0.073232    0.006254
   7 C :    0.025380    0.000852
   8 N :    0.343852   -0.000011
   9 H :    0.045251    0.009135
  10 H :    0.066597    0.017517
  11 H :    0.065349    0.039273
  12 H :    0.054202    0.000382
  13 H :    0.054247    0.000176
  14 H :    0.063078    0.000163
  15 H :    0.062917    0.000324
  16 H :    0.124293    0.000079
  17 H :    0.127418    0.000016
  18 H :    0.093144    0.000261
  19 C :   -0.103070    0.002291
  20 N :    0.053913    0.011978
  21 H :    0.082766    0.000093
  22 O :   -0.178549    0.013933
  23 H :    0.127016    0.000060
  24 C :    0.020718    0.000765
  25 H :    0.038384    0.000217
  26 H :    0.034958    0.000796
  27 H :    0.055172    0.000151
  28 C :   -0.034736    0.002827
  29 H :    0.062265   -0.000000
  30 H :    0.036872    0.000092
  31 H :    0.054516    0.000427
  32 H :    0.063286    0.003679

  Mayer bond orders larger than 0.100000
B(  0-N ,  1-C ) :   1.0115 B(  0-N , 18-H ) :   0.8982 B(  0-N , 19-C ) :   1.1934
B(  1-C ,  2-C ) :   0.8669 B(  1-C ,  4-C ) :   0.9813 B(  1-C , 32-H ) :   0.9739
B(  2-C ,  3-O ) :   1.8622 B(  2-C , 20-N ) :   1.2177 B(  4-C ,  5-C ) :   1.0034
B(  4-C ,  9-H ) :   0.9804 B(  5-C ,  6-C ) :   0.9859 B(  5-C , 10-H ) :   0.9437
B(  5-C , 11-H ) :   0.9355 B(  6-C ,  7-C ) :   0.9584 B(  6-C , 12-H ) :   0.9589
B(  6-C , 13-H ) :   0.9566 B(  7-C ,  8-N ) :   0.8759 B(  7-C , 14-H ) :   0.9361
B(  7-C , 15-H ) :   0.9374 B(  8-N , 16-H ) :   0.8844 B(  8-N , 17-H ) :   0.8834
B(  8-N , 23-H ) :   0.8839 B( 19-C , 22-O ) :   1.8649 B( 19-C , 28-C ) :   0.9011
B( 20-N , 21-H ) :   0.9268 B( 20-N , 24-C ) :   0.9657 B( 24-C , 25-H ) :   0.9544
B( 24-C , 26-H ) :   0.9575 B( 24-C , 27-H ) :   0.9441 B( 28-C , 29-H ) :   0.9487
B( 28-C , 30-H ) :   0.9731 B( 28-C , 31-H ) :   0.9597

FINAL SINGLE POINT ENERGY      -668.587412360450

DIPOLE MOMENT
-------------
                                X             Y             Z
Electronic contribution:     -1.18797      -5.57410      -0.31601
Nuclear contribution   :      3.60819      12.39673      -0.73099
                        -----------------------------------------
Total Dipole Moment    :      2.42022       6.82263      -1.04700
                        -----------------------------------------
Magnitude (a.u.)       :      7.31450
Magnitude (Debye)      :     18.59199

Rotational constants in cm-1:     0.020123     0.013160     0.008927
Rotational constants in MHz :   603.283927   394.513458   267.621102

                             ****ORCA TERMINATED NORMALLY****
TOTAL RUN TIME: 0 days 0 hours 12 minutes 1 seconds 658 msec
