                         Program Version 5.0.4 -  RELEASE  -
|  1> ! B3LYP EPR-II AUTOAUX
|  2> %pal nprocs 16 end
|  3> *XYZFile 1 2 opt.xyz
|  4> %EPRNMR
|  5>         GTENSOR   TRUE
|  6>         NUCLEI    = 9,10,11,12,18,30,31,32,33 {SHIFT, AISO, ADIP, AORB}
|  7>         ORI       GIAO
|  8> END
|  9>
| 10>                          ****END OF INPUT****

CARTESIAN COORDINATES (ANGSTROEM)
---------------------------------
  N     -7.849123    0.924409    0.078250
  C     -6.401750    0.872185    0.219965
  C     -6.091914    0.890205    1.730097
  O     -6.815940    1.513692    2.510124
  C     -5.687368    2.042737   -0.513514
  C     -6.111098    3.437003   -0.021257
  C     -5.568349    4.548125   -0.947814
  C     -6.003392    5.900415   -0.506291
  N     -5.504638    7.077268   -1.280063
  H     -6.890913    6.119848    0.077407
  H     -5.640620    7.951844   -0.760907
  H     -5.979153    7.179798   -2.190367
  H     -8.373810    1.113893    0.921864
  C     -8.473464    0.610299   -1.102525
  N     -4.961817    0.228947    2.100739
  H     -4.505344   -0.350147    1.411205
  O     -7.833558    0.365947   -2.125600
  H     -4.500479    6.981892   -1.474721
  C     -4.514367    0.131224    3.490543
  H     -4.684212   -0.874947    3.886840
  H     -3.449971    0.370723    3.564730
  H     -5.090176    0.843453    4.081146
  C     -9.995826    0.578249   -1.065558
  H    -10.382527    1.208356   -1.870438
  H    -10.321507   -0.446142   -1.268112
  H    -10.417641    0.902492   -0.110659
  H     -6.039313   -0.056240   -0.237011
  H     -4.602756    1.918037   -0.405252
  H     -5.927158    1.929854   -1.575785
  H     -5.763364    3.610873    1.001782
  H     -7.204689    3.493287   -0.001252
  H     -4.467990    4.504860   -0.995504
  H     -5.919021    4.361961   -1.980277

 Total Charge           Charge          ....    1
 Multiplicity           Mult            ....    2
 Number of Electrons    NEL             ....  109
 Basis Dimension        Dim             ....  371

ORBITAL ENERGIES
----------------
                 SPIN UP ORBITALS
  NO   OCC          E(Eh)            E(eV)
   0   1.0000     -19.205797      -522.6163
   1   1.0000     -19.185152      -522.0545
   2   1.0000     -14.658877      -398.8883
   3   1.0000     -14.455789      -393.3620
   4   1.0000     -14.438241      -392.8845
   5   1.0000     -10.438535      -284.0470
   6   1.0000     -10.388115      -282.6750
   7   1.0000     -10.372817      -282.2587
   8   1.0000     -10.360957      -281.9360
   9   1.0000     -10.332396      -281.1588
  10   1.0000     -10.314879      -280.6821
  11   1.0000     -10.298830      -280.2454
  12   1.0000     -10.296733      -280.1883
  13   1.0000     -10.263196      -279.2758
  14   1.0000      -1.206174       -32.8217
  15   1.0000      -1.129247       -30.7284
  16   1.0000      -1.108235       -30.1566
  17   1.0000      -1.013674       -27.5835
  18   1.0000      -1.004212       -27.3260
  19   1.0000      -0.962646       -26.1949
  20   1.0000      -0.891616       -24.2621
  21   1.0000      -0.846762       -23.0416
  22   1.0000      -0.809715       -22.0335
  23   1.0000      -0.804809       -21.9000
  24   1.0000      -0.784718       -21.3533
  25   1.0000      -0.783243       -21.3131
  26   1.0000      -0.750844       -20.4315
  27   1.0000      -0.717481       -19.5237
  28   1.0000      -0.680286       -18.5115
  29   1.0000      -0.678735       -18.4693
  30   1.0000      -0.655845       -17.8464
  31   1.0000      -0.625686       -17.0258
  32   1.0000      -0.610342       -16.6082
  33   1.0000      -0.593414       -16.1476
  34   1.0000      -0.573177       -15.5969
  35   1.0000      -0.553437       -15.0598
  36   1.0000      -0.549393       -14.9497
  37   1.0000      -0.541562       -14.7366
  38   1.0000      -0.530693       -14.4409
  39   1.0000      -0.528216       -14.3735
  40   1.0000      -0.514533       -14.0012
  41   1.0000      -0.496821       -13.5192
  42   1.0000      -0.486908       -13.2494
  43   1.0000      -0.481256       -13.0956
  44   1.0000      -0.477490       -12.9932
  45   1.0000      -0.471430       -12.8283
  46   1.0000      -0.461484       -12.5576
  47   1.0000      -0.456435       -12.4202
  48   1.0000      -0.454801       -12.3758
  49   1.0000      -0.426666       -11.6102
  50   1.0000      -0.411465       -11.1965
  51   1.0000      -0.356138        -9.6910
  52   1.0000      -0.352116        -9.5816
  53   1.0000      -0.336277        -9.1506
  54   1.0000      -0.330606        -8.9962
  55   0.0000      -0.187998        -5.1157
  56   0.0000      -0.117039        -3.1848
  57   0.0000      -0.106558        -2.8996
  58   0.0000      -0.087781        -2.3886
  59   0.0000      -0.082553        -2.2464

                 SPIN DOWN ORBITALS
  NO   OCC          E(Eh)            E(eV)
   0   1.0000     -19.205795      -522.6162
   1   1.0000     -19.185149      -522.0545
   2   1.0000     -14.659569      -398.9071
   3   1.0000     -14.455789      -393.3620
   4   1.0000     -14.438240      -392.8845
   5   1.0000     -10.423645      -283.6418
   6   1.0000     -10.388112      -282.6749
   7   1.0000     -10.372817      -282.2587
   8   1.0000     -10.361589      -281.9532
   9   1.0000     -10.332403      -281.1590
  10   1.0000     -10.314825      -280.6807
  11   1.0000     -10.298830      -280.2454
  12   1.0000     -10.296737      -280.1884
  13   1.0000     -10.263195      -279.2757
  14   1.0000      -1.202049       -32.7094
  15   1.0000      -1.129243       -30.7283
  16   1.0000      -1.108231       -30.1565
  17   1.0000      -1.013673       -27.5834
  18   1.0000      -1.004184       -27.3252
  19   1.0000      -0.951207       -25.8837
  20   1.0000      -0.884689       -24.0736
  21   1.0000      -0.839166       -22.8349
  22   1.0000      -0.807067       -21.9614
  23   1.0000      -0.802926       -21.8487
  24   1.0000      -0.782913       -21.3042
  25   1.0000      -0.776775       -21.1371
  26   1.0000      -0.749305       -20.3896
  27   1.0000      -0.716170       -19.4880
  28   1.0000      -0.678763       -18.4701
  29   1.0000      -0.672560       -18.3013
  30   1.0000      -0.653938       -17.7946
  31   1.0000      -0.624123       -16.9833
  32   1.0000      -0.601466       -16.3667
  33   1.0000      -0.587889       -15.9973
  34   1.0000      -0.572367       -15.5749
  35   1.0000      -0.552914       -15.0456
  36   1.0000      -0.547312       -14.8931
  37   1.0000      -0.539908       -14.6916
  38   1.0000      -0.529602       -14.4112
  39   1.0000      -0.525401       -14.2969
  40   1.0000      -0.513745       -13.9797
  41   1.0000      -0.495970       -13.4960
  42   1.0000      -0.486520       -13.2389
  43   1.0000      -0.480722       -13.0811
  44   1.0000      -0.477446       -12.9920
  45   1.0000      -0.471156       -12.8208
  46   1.0000      -0.460970       -12.5436
  47   1.0000      -0.455928       -12.4064
  48   1.0000      -0.454620       -12.3708
  49   1.0000      -0.426504       -11.6058
  50   1.0000      -0.356153        -9.6914
  51   1.0000      -0.352117        -9.5816
  52   1.0000      -0.336249        -9.1498
  53   1.0000      -0.330594        -8.9959
  54   0.0000      -0.257682        -7.0119
  55   0.0000      -0.186373        -5.0715
  56   0.0000      -0.115454        -3.1417
  57   0.0000      -0.102596        -2.7918
  58   0.0000      -0.082438        -2.2433

MULLIKEN ATOMIC CHARGES AND SPIN POPULATIONS
--------------------------------------------
   0 N :   -0.136928    0.000065
   1 C :   -0.108066   -0.000147
   2 C :    0.083350    0.000083
   3 O :   -0.326944    0.000085
   4 C :   -0.268855   -0.001251
   5 C :   -0.280050    0.005946
   6 C :   -0.252404   -0.056723
   7 C :   -0.133154    0.988169
   8 N :   -0.349942   -0.036360
   9 H :    0.215922   -0.039991
  10 H :    0.338700    0.003775
  11 H :    0.335276    0.037905
  12 H :    0.258805   -0.000004
  13 C :    0.169936   -0.000012
  14 N :   -0.106084    0.000003
  15 H :    0.237664   -0.000006
  16 O :   -0.316708    0.000087
  17 H :    0.335474    0.009834
  18 C :   -0.449431    0.000000
  19 H :    0.180764   -0.000002
  20 H :    0.165265    0.000001
  21 H :    0.199643   -0.000000
  22 C :   -0.543407    0.000028
  23 H :    0.184959    0.000001
  24 H :    0.199709   -0.000003
  25 H :    0.150762   -0.000002
  26 H :    0.159565    0.000041
  27 H :    0.146649    0.000491
  28 H :    0.183584    0.000319
  29 H :    0.183233   -0.000888
  30 H :    0.176594   -0.000615
  31 H :    0.178517    0.030487
  32 H :    0.187603    0.058683
Sum of atomic charges         :    1.0000000

LOEWDIN ATOMIC CHARGES AND SPIN POPULATIONS
-------------------------------------------
   0 N :    0.056446    0.000014
   1 C :   -0.040560   -0.000161
   2 C :   -0.100080    0.000107
   3 O :   -0.194238    0.000070
   4 C :   -0.049998    0.000093
   5 C :   -0.052029    0.002130
   6 C :   -0.086139    0.012546
   7 C :    0.030489    0.851876
   8 N :    0.349641    0.000247
   9 H :    0.062606    0.007509
  10 H :    0.132024    0.004090
  11 H :    0.131528    0.034257
  12 H :    0.092333   -0.000001
  13 C :   -0.101642   -0.000013
  14 N :    0.049145   -0.000008
  15 H :    0.082899    0.000000
  16 O :   -0.191316    0.000071
  17 H :    0.133088    0.010356
  18 C :    0.020095    0.000001
  19 H :    0.038660   -0.000001
  20 H :    0.034610   -0.000000
  21 H :    0.054888    0.000001
  22 C :   -0.035867    0.000017
  23 H :    0.055031   -0.000000
  24 H :    0.062002   -0.000001
  25 H :    0.035654   -0.000000
  26 H :    0.064927   -0.000012
  27 H :    0.049723    0.000358
  28 H :    0.062151    0.000468
  29 H :    0.057252   -0.000341
  30 H :    0.057236   -0.000172
  31 H :    0.065055    0.026866
  32 H :    0.074385    0.049633

  Mayer bond orders larger than 0.100000
B(  0-N ,  1-C ) :   1.0200 B(  0-N , 12-H ) :   0.8964 B(  0-N , 13-C ) :   1.1902
B(  1-C ,  2-C ) :   0.8952 B(  1-C ,  4-C ) :   0.9354 B(  1-C , 16-O ) :   0.1258
B(  1-C , 26-H ) :   0.9731 B(  2-C ,  3-O ) :   1.8615 B(  2-C , 14-N ) :   1.2058
B(  4-C ,  5-C ) :   0.9635 B(  4-C , 27-H ) :   0.9691 B(  4-C , 28-H ) :   0.9554
B(  5-C ,  6-C ) :   0.9515 B(  5-C , 29-H ) :   0.9632 B(  5-C , 30-H ) :   0.9653
B(  6-C ,  7-C ) :   0.9965 B(  6-C , 31-H ) :   0.9453 B(  6-C , 32-H ) :   0.9414
B(  7-C ,  8-N ) :   0.8947 B(  7-C ,  9-H ) :   0.9394 B(  8-N , 10-H ) :   0.8844
B(  8-N , 11-H ) :   0.8703 B(  8-N , 17-H ) :   0.8830 B( 13-C , 16-O ) :   1.8669
B( 13-C , 22-C ) :   0.9023 B( 14-N , 15-H ) :   0.9265 B( 14-N , 18-C ) :   0.9633
B( 18-C , 19-H ) :   0.9540 B( 18-C , 20-H ) :   0.9585 B( 18-C , 21-H ) :   0.9442
B( 22-C , 23-H ) :   0.9571 B( 22-C , 24-H ) :   0.9500 B( 22-C , 25-H ) :   0.9744

FINAL SINGLE POINT ENERGY      -668.577955124997

DIPOLE MOMENT
-------------
                                X             Y             Z
Electronic contribution:     -1.68175      -2.72564      -0.25830
Nuclear contribution   :      4.05697       9.97340      -1.26191
                        -----------------------------------------
Total Dipole Moment    :      2.37522       7.24775      -1.52021
                        -----------------------------------------
Magnitude (a.u.)       :      7.77706
Magnitude (Debye)      :     19.76771

Rotational constants in cm-1:     0.019788     0.012998     0.008893
Rotational constants in MHz :   593.224808   389.662622   266.592169

CHEMICAL SHIELDING SUMMARY (ppm)  --  Orbital contribution
----------------------------------------------------------

  Nucleus  Element    Isotropic     Anisotropy
  -------  -------  ------------   ------------
      8       N          201.316         35.917
      9       H           26.037          6.538
     10       H           26.327         14.092
     11       H           26.513         13.597
     17       H           26.823         11.101
     29       H           30.081          5.990
     30       H           29.842          5.945
     31       H           29.466          5.249
     32       H           29.322          5.203

                             ****ORCA TERMINATED NORMALLY****
TOTAL RUN TIME: 0 days 0 hours 5 minutes 3 seconds 701 msec
