                         Program Version 5.0.4 -  RELEASE  -
|  1> ! M062X def2-TZVP OPT FREQ
|  2> %pal nprocs 16 end
|  3> *XYZFile 1 2 opt.xyz
|  4>
|  5>                          ****END OF INPUT****
 Total Charge           Charge          ....    1
 Multiplicity           Mult            ....    2
 Number of Electrons    NEL             ....  109
FINAL SINGLE POINT ENERGY      -668.796103692260
FINAL SINGLE POINT ENERGY      -668.798948495398
FINAL SINGLE POINT ENERGY      -668.799039428667
FINAL SINGLE POINT ENERGY      -668.799042541616
FINAL SINGLE POINT ENERGY      -668.799045234827
FINAL SINGLE POINT ENERGY      -668.798795946386
FINAL SINGLE POINT ENERGY      -668.799022549632
FINAL SINGLE POINT ENERGY      -668.799003203432
FINAL SINGLE POINT ENERGY      -668.798923308240
FINAL SINGLE POINT ENERGY      -668.798985787188
FINAL SINGLE POINT ENERGY      -668.798991935360
FINAL SINGLE POINT ENERGY      -668.798993244357
                    ***********************HURRAY********************

CARTESIAN COORDINATES (ANGSTROEM)
---------------------------------
  N     -7.887063    0.933623    0.056343
  C     -6.457007    0.837982    0.211799
  C     -6.151137    0.869696    1.708353
  O     -6.942924    1.350486    2.497811
  C     -5.723323    1.979966   -0.511402
  C     -6.084965    3.355492    0.035541
  C     -5.572297    4.461131   -0.888128
  C     -5.957212    5.801009   -0.409202
  N     -5.494144    6.955553   -1.207983
  H     -6.824447    6.020660    0.195901
  H     -5.560036    7.831110   -0.680771
  H     -6.037258    7.075824   -2.074247
  H     -8.420659    1.079490    0.901009
  C     -8.481910    0.646071   -1.132121
  N     -4.935991    0.396525    2.049354
  H     -4.404667   -0.089910    1.345832
  O     -7.826205    0.400072   -2.126649
  H     -4.514874    6.828763   -1.485166
  C     -4.473215    0.342507    3.424558
  H     -4.524648   -0.673274    3.816484
  H     -3.446781    0.699580    3.489072
  H     -5.118502    0.982303    4.019858
  C     -9.989915    0.649730   -1.139140
  H    -10.332855    1.252234   -1.978181
  H    -10.331632   -0.371383   -1.307611
  H    -10.421884    1.022959   -0.212541
  H     -6.113327   -0.103869   -0.225636
  H     -4.644952    1.817906   -0.436721
  H     -5.996939    1.904814   -1.565499
  H     -5.675311    3.494236    1.039063
  H     -7.171535    3.435144    0.120413
  H     -4.480130    4.400606   -0.988011
  H     -5.975501    4.297366   -1.900600

 Multiplicity           Mult            ....    2
 Number of Electrons    NEL             ....  109
 Basis Dimension        Dim             ....  548

ORBITAL ENERGIES
----------------
                 SPIN UP ORBITALS
  NO   OCC          E(Eh)            E(eV)
   0   1.0000     -19.691059      -535.8209
   1   1.0000     -19.669476      -535.2336
   2   1.0000     -15.077667      -410.2842
   3   1.0000     -14.870699      -404.6523
   4   1.0000     -14.854024      -404.1985
   5   1.0000     -10.791071      -293.6400
   6   1.0000     -10.738814      -292.2180
   7   1.0000     -10.722591      -291.7765
   8   1.0000     -10.710159      -291.4382
   9   1.0000     -10.682796      -290.6937
  10   1.0000     -10.667316      -290.2724
  11   1.0000     -10.652599      -289.8720
  12   1.0000     -10.648463      -289.7594
  13   1.0000     -10.614292      -288.8296
  14   1.0000      -1.321631       -35.9634
  15   1.0000      -1.265744       -34.4426
  16   1.0000      -1.243835       -33.8465
  17   1.0000      -1.131799       -30.7978
  18   1.0000      -1.122857       -30.5545
  19   1.0000      -1.071600       -29.1597
  20   1.0000      -0.998151       -27.1611
  21   1.0000      -0.946954       -25.7679
  22   1.0000      -0.908840       -24.7308
  23   1.0000      -0.899620       -24.4799
  24   1.0000      -0.871754       -23.7216
  25   1.0000      -0.863311       -23.4919
  26   1.0000      -0.838213       -22.8089
  27   1.0000      -0.807835       -21.9823
  28   1.0000      -0.766935       -20.8694
  29   1.0000      -0.761313       -20.7164
  30   1.0000      -0.738569       -20.0975
  31   1.0000      -0.710635       -19.3374
  32   1.0000      -0.691110       -18.8061
  33   1.0000      -0.671236       -18.2652
  34   1.0000      -0.656861       -17.8741
  35   1.0000      -0.635784       -17.3006
  36   1.0000      -0.632205       -17.2032
  37   1.0000      -0.623818       -16.9750
  38   1.0000      -0.609433       -16.5835
  39   1.0000      -0.603239       -16.4150
  40   1.0000      -0.592446       -16.1213
  41   1.0000      -0.573235       -15.5985
  42   1.0000      -0.561048       -15.2669
  43   1.0000      -0.557244       -15.1634
  44   1.0000      -0.546647       -14.8750
  45   1.0000      -0.541766       -14.7422
  46   1.0000      -0.532284       -14.4842
  47   1.0000      -0.530323       -14.4308
  48   1.0000      -0.522658       -14.2222
  49   1.0000      -0.499108       -13.5814
  50   1.0000      -0.470927       -12.8146
  51   1.0000      -0.434549       -11.8247
  52   1.0000      -0.422106       -11.4861
  53   1.0000      -0.411897       -11.2083
  54   1.0000      -0.404338       -11.0026
  55   0.0000      -0.152301        -4.1443
  56   0.0000      -0.094338        -2.5671
  57   0.0000      -0.084286        -2.2935
  58   0.0000      -0.056703        -1.5430
  59   0.0000      -0.045692        -1.2433

                 SPIN DOWN ORBITALS
  NO   OCC          E(Eh)            E(eV)
   0   1.0000     -19.691058      -535.8209
   1   1.0000     -19.669474      -535.2336
   2   1.0000     -15.078376      -410.3035
   3   1.0000     -14.870699      -404.6523
   4   1.0000     -14.854024      -404.1985
   5   1.0000     -10.782721      -293.4128
   6   1.0000     -10.738812      -292.2179
   7   1.0000     -10.722591      -291.7765
   8   1.0000     -10.710652      -291.4517
   9   1.0000     -10.682802      -290.6938
  10   1.0000     -10.667276      -290.2713
  11   1.0000     -10.652599      -289.8720
  12   1.0000     -10.648469      -289.7596
  13   1.0000     -10.614292      -288.8296
  14   1.0000      -1.316093       -35.8127
  15   1.0000      -1.265742       -34.4426
  16   1.0000      -1.243832       -33.8464
  17   1.0000      -1.131798       -30.7978
  18   1.0000      -1.122828       -30.5537
  19   1.0000      -1.059396       -28.8276
  20   1.0000      -0.990428       -26.9509
  21   1.0000      -0.937640       -25.5145
  22   1.0000      -0.907787       -24.7021
  23   1.0000      -0.892404       -24.2835
  24   1.0000      -0.870154       -23.6781
  25   1.0000      -0.853619       -23.2281
  26   1.0000      -0.836232       -22.7550
  27   1.0000      -0.806168       -21.9370
  28   1.0000      -0.766895       -20.8683
  29   1.0000      -0.753283       -20.4979
  30   1.0000      -0.734174       -19.9779
  31   1.0000      -0.709255       -19.2998
  32   1.0000      -0.680188       -18.5089
  33   1.0000      -0.667191       -18.1552
  34   1.0000      -0.654296       -17.8043
  35   1.0000      -0.635448       -17.2914
  36   1.0000      -0.629393       -17.1267
  37   1.0000      -0.621705       -16.9175
  38   1.0000      -0.608084       -16.5468
  39   1.0000      -0.600116       -16.3300
  40   1.0000      -0.589550       -16.0425
  41   1.0000      -0.571925       -15.5629
  42   1.0000      -0.560805       -15.2603
  43   1.0000      -0.556587       -15.1455
  44   1.0000      -0.546642       -14.8749
  45   1.0000      -0.541435       -14.7332
  46   1.0000      -0.531440       -14.4612
  47   1.0000      -0.529843       -14.4178
  48   1.0000      -0.522017       -14.2048
  49   1.0000      -0.498870       -13.5749
  50   1.0000      -0.434611       -11.8264
  51   1.0000      -0.422106       -11.4861
  52   1.0000      -0.411902       -11.2084
  53   1.0000      -0.404299       -11.0015
  54   0.0000      -0.218051        -5.9335
  55   0.0000      -0.156302        -4.2532
  56   0.0000      -0.096754        -2.6328
  57   0.0000      -0.090742        -2.4692
  58   0.0000      -0.062414        -1.6984

MULLIKEN ATOMIC CHARGES AND SPIN POPULATIONS
--------------------------------------------
   0 N :   -0.416715    0.000055
   1 C :   -0.098390   -0.001001
   2 C :    0.356617    0.001054
   3 O :   -0.407662   -0.000053
   4 C :   -0.326602    0.000605
   5 C :   -0.347402    0.022626
   6 C :   -0.322082   -0.078276
   7 C :   -0.075070    0.997124
   8 N :   -0.334550   -0.046834
   9 H :    0.236711   -0.032540
  10 H :    0.345955    0.005519
  11 H :    0.342161    0.036486
  12 H :    0.276281    0.000005
  13 C :    0.385695   -0.000051
  14 N :   -0.352801   -0.000214
  15 H :    0.255006   -0.000001
  16 O :   -0.405100    0.000105
  17 H :    0.338864    0.009437
  18 C :   -0.311855    0.000003
  19 H :    0.164988   -0.000002
  20 H :    0.149075    0.000000
  21 H :    0.182592   -0.000009
  22 C :   -0.450099   -0.000010
  23 H :    0.159113   -0.000000
  24 H :    0.176142   -0.000002
  25 H :    0.133896    0.000004
  26 H :    0.206325    0.000023
  27 H :    0.169779    0.000080
  28 H :    0.211793   -0.000650
  29 H :    0.186403   -0.004696
  30 H :    0.181366   -0.002516
  31 H :    0.187008    0.032359
  32 H :    0.202558    0.061368
Sum of atomic charges         :    1.0000000

LOEWDIN ATOMIC CHARGES AND SPIN POPULATIONS
-------------------------------------------
   0 N :    0.138584    0.000009
   1 C :   -0.247726   -0.000107
   2 C :   -0.447370    0.000084
   3 O :    0.062641    0.000019
   4 C :   -0.234122    0.000505
   5 C :   -0.247048    0.001373
   6 C :   -0.287283    0.065452
   7 C :   -0.126957    0.806876
   8 N :    0.162893    0.029426
   9 H :    0.149010    0.001438
  10 H :    0.225176    0.003755
  11 H :    0.224436    0.027136
  12 H :    0.196748    0.000000
  13 C :   -0.479212   -0.000023
  14 N :    0.103611    0.000005
  15 H :    0.190358    0.000006
  16 O :    0.059193    0.000037
  17 H :    0.225063    0.006771
  18 C :   -0.293104    0.000003
  19 H :    0.122105   -0.000001
  20 H :    0.118197    0.000001
  21 H :    0.134431   -0.000001
  22 C :   -0.257322    0.000005
  23 H :    0.139434   -0.000000
  24 H :    0.146796   -0.000001
  25 H :    0.124517    0.000000
  26 H :    0.167357   -0.000017
  27 H :    0.143520    0.000249
  28 H :    0.156757    0.000320
  29 H :    0.151858   -0.000242
  30 H :    0.150951   -0.000334
  31 H :    0.159527    0.018973
  32 H :    0.166978    0.038281

  Mayer bond orders larger than 0.100000
B(  0-N ,  1-C ) :   0.9403 B(  0-N , 12-H ) :   0.8804 B(  0-N , 13-C ) :   1.1873
B(  1-C ,  2-C ) :   0.9328 B(  1-C ,  4-C ) :   0.8858 B(  1-C , 26-H ) :   0.9897
B(  2-C ,  3-O ) :   1.8909 B(  2-C , 14-N ) :   1.2388 B(  4-C ,  5-C ) :   0.8511
B(  4-C , 27-H ) :   0.9708 B(  4-C , 28-H ) :   0.9718 B(  5-C ,  6-C ) :   0.8835
B(  5-C , 29-H ) :   0.9682 B(  5-C , 30-H ) :   0.9907 B(  6-C ,  7-C ) :   1.0190
B(  6-C , 31-H ) :   0.9452 B(  6-C , 32-H ) :   0.9493 B(  7-C ,  8-N ) :   0.8784
B(  7-C ,  9-H ) :   0.9344 B(  8-N , 10-H ) :   0.8720 B(  8-N , 11-H ) :   0.8552
B(  8-N , 17-H ) :   0.8714 B( 13-C , 16-O ) :   1.9035 B( 13-C , 22-C ) :   0.9159
B( 14-N , 15-H ) :   0.9142 B( 14-N , 18-C ) :   0.8936 B( 18-C , 19-H ) :   0.9682
B( 18-C , 20-H ) :   0.9653 B( 18-C , 21-H ) :   0.9609 B( 22-C , 23-H ) :   0.9597
B( 22-C , 24-H ) :   0.9506 B( 22-C , 25-H ) :   0.9878

FINAL SINGLE POINT ENERGY      -668.798995931743

DIPOLE MOMENT
-------------
                                X             Y             Z
Electronic contribution:     -1.98676      -3.03305      -0.21263
Nuclear contribution   :      4.41328      10.27751      -1.26108
                        -----------------------------------------
Total Dipole Moment    :      2.42652       7.24447      -1.47370
                        -----------------------------------------
Magnitude (a.u.)       :      7.78088
Magnitude (Debye)      :     19.77742

VIBRATIONAL FREQUENCIES
-----------------------

Scaling factor for frequencies =  1.000000000  (already applied!)

   0:         0.00 cm**-1
   1:         0.00 cm**-1
   2:         0.00 cm**-1
   3:         0.00 cm**-1
   4:         0.00 cm**-1
   5:         0.00 cm**-1
   6:        26.23 cm**-1
   7:        36.60 cm**-1
   8:        59.60 cm**-1
   9:        66.22 cm**-1
  10:        74.80 cm**-1
  11:        88.43 cm**-1
  12:       103.00 cm**-1
  13:       110.38 cm**-1
  14:       115.51 cm**-1
  15:       129.10 cm**-1
  16:       146.36 cm**-1
  17:       168.37 cm**-1
  18:       184.11 cm**-1
  19:       216.55 cm**-1
  20:       251.18 cm**-1
  21:       294.13 cm**-1
  22:       314.95 cm**-1
  23:       347.34 cm**-1
  24:       383.78 cm**-1
  25:       410.45 cm**-1
  26:       468.16 cm**-1
  27:       487.94 cm**-1
  28:       512.76 cm**-1
  29:       548.26 cm**-1
  30:       573.41 cm**-1
  31:       657.30 cm**-1
  32:       670.70 cm**-1
  33:       706.19 cm**-1
  34:       747.91 cm**-1
  35:       813.27 cm**-1
  36:       847.29 cm**-1
  37:       894.06 cm**-1
  38:       914.40 cm**-1
  39:       948.30 cm**-1
  40:      1008.65 cm**-1
  41:      1014.91 cm**-1
  42:      1025.84 cm**-1
  43:      1030.85 cm**-1
  44:      1065.00 cm**-1
  45:      1068.33 cm**-1
  46:      1073.35 cm**-1
  47:      1085.60 cm**-1
  48:      1113.23 cm**-1
  49:      1158.87 cm**-1
  50:      1163.12 cm**-1
  51:      1175.06 cm**-1
  52:      1183.16 cm**-1
  53:      1218.00 cm**-1
  54:      1241.41 cm**-1
  55:      1274.03 cm**-1
  56:      1280.46 cm**-1
  57:      1297.60 cm**-1
  58:      1327.41 cm**-1
  59:      1342.97 cm**-1
  60:      1372.75 cm**-1
  61:      1392.20 cm**-1
  62:      1411.87 cm**-1
  63:      1414.23 cm**-1
  64:      1420.90 cm**-1
  65:      1451.42 cm**-1
  66:      1460.30 cm**-1
  67:      1473.31 cm**-1
  68:      1487.83 cm**-1
  69:      1490.13 cm**-1
  70:      1501.26 cm**-1
  71:      1502.52 cm**-1
  72:      1509.63 cm**-1
  73:      1514.46 cm**-1
  74:      1542.82 cm**-1
  75:      1593.73 cm**-1
  76:      1640.96 cm**-1
  77:      1645.71 cm**-1
  78:      1777.33 cm**-1
  79:      1792.32 cm**-1
  80:      2985.58 cm**-1
  81:      3042.35 cm**-1
  82:      3071.54 cm**-1
  83:      3077.70 cm**-1
  84:      3083.59 cm**-1
  85:      3086.47 cm**-1
  86:      3089.88 cm**-1
  87:      3120.37 cm**-1
  88:      3138.99 cm**-1
  89:      3158.21 cm**-1
  90:      3170.92 cm**-1
  91:      3185.44 cm**-1
  92:      3197.21 cm**-1
  93:      3246.86 cm**-1
  94:      3351.33 cm**-1
  95:      3431.43 cm**-1
  96:      3477.61 cm**-1
  97:      3616.94 cm**-1
  98:      3646.38 cm**-1

IR SPECTRUM
-----------

 Mode   freq       eps      Int      T**2         TX        TY        TZ
       cm**-1   L/(mol*cm) km/mol    a.u.
----------------------------------------------------------------------------
  6:     26.23   0.002610   13.19  0.031062  ( 0.138689  0.069870  0.083339)
  7:     36.60   0.000217    1.10  0.001852  ( 0.020215 -0.010829 -0.036418)
  8:     59.60   0.001539    7.78  0.008058  (-0.026910 -0.062697  0.058333)
  9:     66.22   0.000994    5.02  0.004683  ( 0.042288 -0.042474  0.033023)
 10:     74.80   0.000970    4.90  0.004049  ( 0.038868 -0.033040 -0.038033)
 11:     88.43   0.002345   11.85  0.008274  ( 0.006217  0.079169 -0.044361)
 12:    103.00   0.000536    2.71  0.001623  (-0.007687 -0.032556  0.022457)
 13:    110.38   0.001461    7.38  0.004129  ( 0.030799  0.031001  0.047114)
 14:    115.51   0.000670    3.39  0.001810  ( 0.014505  0.028345  0.028219)
 15:    129.10   0.000918    4.64  0.002219  (-0.019941 -0.037056 -0.021169)
 16:    146.36   0.000504    2.55  0.001075  ( 0.031048  0.008730  0.005889)
 17:    168.37   0.001691    8.55  0.003134  (-0.048128 -0.024867 -0.014137)
 18:    184.11   0.001251    6.32  0.002121  ( 0.011684  0.044543  0.000357)
 19:    216.55   0.002150   10.86  0.003098  ( 0.002834  0.055324 -0.005416)
 20:    251.18   0.001355    6.85  0.001684  ( 0.031705  0.018001  0.018832)
 21:    294.13   0.000867    4.38  0.000920  (-0.027796 -0.000009 -0.012128)
 22:    314.95   0.000322    1.63  0.000319  ( 0.014555 -0.009001 -0.005125)
 23:    347.34   0.000225    1.14  0.000202  ( 0.003970 -0.002806 -0.013368)
 24:    383.78   0.004486   22.67  0.003647  ( 0.042378  0.001013  0.043017)
 25:    410.45   0.000609    3.08  0.000463  ( 0.012361 -0.001912 -0.017502)
 26:    468.16   0.009363   47.31  0.006241  (-0.062554 -0.039969 -0.027026)
 27:    487.94   0.005665   28.63  0.003623  ( 0.022651  0.039761 -0.039100)
 28:    512.76   0.005055   25.54  0.003076  ( 0.020954  0.046581 -0.021619)
 29:    548.26   0.016777   84.79  0.009549  ( 0.034398  0.091397 -0.003580)
 30:    573.41   0.004395   22.21  0.002392  ( 0.029858 -0.034106  0.018359)
 31:    657.30   0.003399   17.18  0.001614  ( 0.017272  0.033589  0.013682)
 32:    670.70   0.000542    2.74  0.000252  (-0.010156 -0.005214 -0.011033)
 33:    706.19   0.000079    0.40  0.000035  (-0.004877  0.003021  0.001412)
 34:    747.91   0.000632    3.19  0.000264  ( 0.013440  0.007745  0.004797)
 35:    813.27   0.000105    0.53  0.000040  ( 0.000481  0.006211 -0.001213)
 36:    847.29   0.001545    7.81  0.000569  (-0.011864 -0.000030 -0.020697)
 37:    894.06   0.000505    2.55  0.000176  (-0.008872  0.009753 -0.001514)
 38:    914.40   0.001195    6.04  0.000408  ( 0.001284  0.019875 -0.003336)
 39:    948.30   0.002895   14.63  0.000953  ( 0.018579 -0.023856 -0.006190)
 40:   1008.65   0.000459    2.32  0.000142  (-0.007559 -0.008378 -0.003823)
 41:   1014.91   0.000405    2.05  0.000125  (-0.000629  0.001668  0.011018)
 42:   1025.84   0.002375   12.00  0.000722  ( 0.010508  0.004164  0.024386)
 43:   1030.85   0.001739    8.79  0.000526  ( 0.022837 -0.001147  0.001883)
 44:   1065.00   0.001486    7.51  0.000435  (-0.001964 -0.020593  0.002714)
 45:   1068.33   0.000580    2.93  0.000170  ( 0.012907  0.001008  0.001376)
 46:   1073.35   0.001854    9.37  0.000539  ( 0.015780 -0.013682  0.010135)
 47:   1085.60   0.001690    8.54  0.000486  ( 0.010070  0.010913 -0.016291)
 48:   1113.23   0.000249    1.26  0.000070  (-0.000320 -0.008184 -0.001641)
 49:   1158.87   0.001875    9.48  0.000505  (-0.012573  0.016198 -0.009187)
 50:   1163.12   0.001403    7.09  0.000376  (-0.018477  0.001002 -0.005824)
 51:   1175.06   0.003496   17.67  0.000928  ( 0.006541  0.024481  0.016918)
 52:   1183.16   0.005564   28.12  0.001467  (-0.028962  0.020237 -0.014801)
 53:   1218.00   0.000908    4.59  0.000233  (-0.014519 -0.003770 -0.002781)
 54:   1241.41   0.006805   34.39  0.001711  (-0.025084  0.005429 -0.032433)
 55:   1274.03   0.005250   26.53  0.001286  ( 0.029818  0.001778  0.019845)
 56:   1280.46   0.004246   21.46  0.001035  ( 0.010190  0.028279 -0.011452)
 57:   1297.60   0.004061   20.52  0.000977  (-0.020749  0.000733 -0.023357)
 58:   1327.41   0.006161   31.13  0.001448  ( 0.015499  0.013615  0.031981)
 59:   1342.97   0.000936    4.73  0.000217  (-0.012425 -0.001961 -0.007694)
 60:   1372.75   0.001976    9.99  0.000449  ( 0.017104 -0.003485  0.012021)
 61:   1392.20   0.001399    7.07  0.000314  ( 0.000916  0.007150 -0.016178)
 62:   1411.87   0.010130   51.19  0.002239  ( 0.037020  0.007825  0.028413)
 63:   1414.23   0.002653   13.41  0.000585  (-0.005837  0.023449  0.001186)
 64:   1420.90   0.003689   18.64  0.000810  (-0.003873 -0.022736  0.016684)
 65:   1451.42   0.003858   19.50  0.000830  ( 0.016832 -0.019981 -0.012125)
 66:   1460.30   0.001459    7.37  0.000312  ( 0.005275 -0.016112 -0.004935)
 67:   1473.31   0.003205   16.20  0.000679  (-0.005231  0.012316 -0.022357)
 68:   1487.83   0.005797   29.30  0.001216  (-0.005670 -0.001736 -0.034362)
 69:   1490.13   0.006552   33.11  0.001372  (-0.021924 -0.016731 -0.024728)
 70:   1501.26   0.004152   20.98  0.000863  ( 0.017737  0.013741  0.018962)
 71:   1502.52   0.002271   11.48  0.000472  (-0.019579  0.005616  0.007534)
 72:   1509.63   0.012894   65.16  0.002665  ( 0.026690 -0.011964  0.042543)
 73:   1514.46   0.027586  139.41  0.005684  (-0.029520 -0.057781  0.038397)
 74:   1542.82   0.087290  441.13  0.017656  (-0.105421 -0.016164 -0.079254)
 75:   1593.73   0.032430  163.89  0.006350  (-0.055738  0.040786 -0.039747)
 76:   1640.96   0.010246   51.78  0.001948  (-0.031051 -0.016470 -0.026702)
 77:   1645.71   0.007893   39.89  0.001497  (-0.030194  0.020877  0.012216)
 78:   1777.33   0.080560  407.12  0.014145  ( 0.066486 -0.040440 -0.089939)
 79:   1792.32   0.019134   96.69  0.003331  ( 0.051868 -0.021956  0.012613)
 80:   2985.58   0.001797    9.08  0.000188  (-0.002695 -0.010981  0.007744)
 81:   3042.35   0.000822    4.15  0.000084  (-0.007153 -0.005356  0.002108)
 82:   3071.54   0.000929    4.70  0.000094  ( 0.002792  0.009297 -0.000418)
 83:   3077.70   0.001677    8.48  0.000170  (-0.004660  0.002354 -0.011951)
 84:   3083.59   0.005168   26.11  0.000523  (-0.021525  0.007641 -0.001116)
 85:   3086.47   0.004538   22.93  0.000459  (-0.011664  0.006609 -0.016705)
 86:   3089.88   0.000373    1.89  0.000038  ( 0.003211 -0.003181 -0.004154)
 87:   3120.37   0.000151    0.77  0.000015  (-0.002744 -0.002346 -0.001455)
 88:   3138.99   0.001898    9.59  0.000189  ( 0.009961 -0.007088  0.006263)
 89:   3158.21   0.001638    8.28  0.000162  (-0.008761 -0.009117  0.001412)
 90:   3170.92   0.000325    1.64  0.000032  ( 0.004304 -0.002358 -0.002814)
 91:   3185.44   0.000916    4.63  0.000090  (-0.003412  0.001370  0.008732)
 92:   3197.21   0.000014    0.07  0.000001  (-0.000955  0.000474 -0.000439)
 93:   3246.86   0.000472    2.39  0.000045  (-0.005755 -0.002361  0.002587)
 94:   3351.33   0.010428   52.70  0.000971  ( 0.005940 -0.018920  0.024036)
 95:   3431.43   0.021481  108.56  0.001954  (-0.038752 -0.015632 -0.014404)
 96:   3477.61   0.026180  132.30  0.002349  (-0.018450  0.036339  0.026236)
 97:   3616.94   0.018891   95.47  0.001630  (-0.004191  0.003269  0.040021)
 98:   3646.38   0.009737   49.21  0.000833  ( 0.021273 -0.016257 -0.010794)

--------------------------
THERMOCHEMISTRY AT 298.15K
--------------------------

Temperature         ... 298.15 K
Pressure            ... 1.00 atm
Total Mass          ... 201.27 AMU

Throughout the following assumptions are being made:
  (1) The electronic state is orbitally nondegenerate
      but the spin degeneracy is treated
  (2) There are no thermally accessible electronically excited states
  (3) Hindered rotations indicated by low frequency modes are not
      treated as such but are treated as vibrations and this may
      cause some error
  (4) All equations used are the standard statistical mechanics
      equations for an ideal gas
  (5) All vibrations are strictly harmonic

freq.      26.23  E(vib)   ...       0.56
freq.      36.60  E(vib)   ...       0.54
freq.      59.60  E(vib)   ...       0.51
freq.      66.22  E(vib)   ...       0.50
freq.      74.80  E(vib)   ...       0.49
freq.      88.43  E(vib)   ...       0.48
freq.     103.00  E(vib)   ...       0.46
freq.     110.38  E(vib)   ...       0.45
freq.     115.51  E(vib)   ...       0.44
freq.     129.10  E(vib)   ...       0.43
freq.     146.36  E(vib)   ...       0.41
freq.     168.37  E(vib)   ...       0.38
freq.     184.11  E(vib)   ...       0.37
freq.     216.55  E(vib)   ...       0.34
freq.     251.18  E(vib)   ...       0.30
freq.     294.13  E(vib)   ...       0.27
freq.     314.95  E(vib)   ...       0.25
freq.     347.34  E(vib)   ...       0.23
freq.     383.78  E(vib)   ...       0.20
freq.     410.45  E(vib)   ...       0.19
freq.     468.16  E(vib)   ...       0.16
freq.     487.94  E(vib)   ...       0.15
freq.     512.76  E(vib)   ...       0.13
freq.     548.26  E(vib)   ...       0.12
freq.     573.41  E(vib)   ...       0.11
freq.     657.30  E(vib)   ...       0.08
freq.     670.70  E(vib)   ...       0.08
freq.     706.19  E(vib)   ...       0.07
freq.     747.91  E(vib)   ...       0.06
freq.     813.27  E(vib)   ...       0.05
freq.     847.29  E(vib)   ...       0.04
freq.     894.06  E(vib)   ...       0.03
freq.     914.40  E(vib)   ...       0.03
freq.     948.30  E(vib)   ...       0.03
freq.    1008.65  E(vib)   ...       0.02
freq.    1014.91  E(vib)   ...       0.02
freq.    1025.84  E(vib)   ...       0.02
freq.    1030.85  E(vib)   ...       0.02
freq.    1065.00  E(vib)   ...       0.02
freq.    1068.33  E(vib)   ...       0.02
freq.    1073.35  E(vib)   ...       0.02
freq.    1085.60  E(vib)   ...       0.02
freq.    1113.23  E(vib)   ...       0.01
freq.    1158.87  E(vib)   ...       0.01
freq.    1163.12  E(vib)   ...       0.01
freq.    1175.06  E(vib)   ...       0.01
freq.    1183.16  E(vib)   ...       0.01
freq.    1218.00  E(vib)   ...       0.01
freq.    1241.41  E(vib)   ...       0.01
freq.    1274.03  E(vib)   ...       0.01
freq.    1280.46  E(vib)   ...       0.01
freq.    1297.60  E(vib)   ...       0.01
freq.    1327.41  E(vib)   ...       0.01
freq.    1342.97  E(vib)   ...       0.01
freq.    1372.75  E(vib)   ...       0.01
freq.    1392.20  E(vib)   ...       0.00
freq.    1411.87  E(vib)   ...       0.00
freq.    1414.23  E(vib)   ...       0.00
freq.    1420.90  E(vib)   ...       0.00
freq.    1451.42  E(vib)   ...       0.00
freq.    1460.30  E(vib)   ...       0.00
freq.    1473.31  E(vib)   ...       0.00
freq.    1487.83  E(vib)   ...       0.00
freq.    1490.13  E(vib)   ...       0.00
freq.    1501.26  E(vib)   ...       0.00
freq.    1502.52  E(vib)   ...       0.00
freq.    1509.63  E(vib)   ...       0.00
freq.    1514.46  E(vib)   ...       0.00
freq.    1542.82  E(vib)   ...       0.00
freq.    1593.73  E(vib)   ...       0.00
freq.    1640.96  E(vib)   ...       0.00
freq.    1645.71  E(vib)   ...       0.00
freq.    1777.33  E(vib)   ...       0.00
freq.    1792.32  E(vib)   ...       0.00
freq.    2985.58  E(vib)   ...       0.00
freq.    3042.35  E(vib)   ...       0.00
freq.    3071.54  E(vib)   ...       0.00
freq.    3077.70  E(vib)   ...       0.00
freq.    3083.59  E(vib)   ...       0.00
freq.    3086.47  E(vib)   ...       0.00
freq.    3089.88  E(vib)   ...       0.00
freq.    3120.37  E(vib)   ...       0.00
freq.    3138.99  E(vib)   ...       0.00
freq.    3158.21  E(vib)   ...       0.00
freq.    3170.92  E(vib)   ...       0.00
freq.    3185.44  E(vib)   ...       0.00
freq.    3197.21  E(vib)   ...       0.00
freq.    3246.86  E(vib)   ...       0.00
freq.    3351.33  E(vib)   ...       0.00
freq.    3431.43  E(vib)   ...       0.00
freq.    3477.61  E(vib)   ...       0.00
freq.    3616.94  E(vib)   ...       0.00
freq.    3646.38  E(vib)   ...       0.00

------------
INNER ENERGY
------------

The inner energy is: U= E(el) + E(ZPE) + E(vib) + E(rot) + E(trans)
    E(el)   - is the total energy from the electronic structure calculation
              = E(kin-el) + E(nuc-el) + E(el-el) + E(nuc-nuc)
    E(ZPE)  - the the zero temperature vibrational energy from the frequency calculation
    E(vib)  - the the finite temperature correction to E(ZPE) due to population
              of excited vibrational states
    E(rot)  - is the rotational thermal energy
    E(trans)- is the translational thermal energy

Summary of contributions to the inner energy U:
Electronic energy                ...   -668.79899593 Eh
Zero point energy                ...      0.29169516 Eh     183.04 kcal/mol
Thermal vibrational correction   ...      0.01476934 Eh       9.27 kcal/mol
Thermal rotational correction    ...      0.00141627 Eh       0.89 kcal/mol
Thermal translational correction ...      0.00141627 Eh       0.89 kcal/mol
-----------------------------------------------------------------------
Total thermal energy                   -668.48969889 Eh

Summary of corrections to the electronic energy:
(perhaps to be used in another calculation)
Total thermal correction                  0.01760189 Eh      11.05 kcal/mol
Non-thermal (ZPE) correction              0.29169516 Eh     183.04 kcal/mol
-----------------------------------------------------------------------
Total correction                          0.30929704 Eh     194.09 kcal/mol

--------
ENTHALPY
--------

The enthalpy is H = U + kB*T
                kB is Boltzmann's constant
Total free energy                 ...   -668.48969889 Eh
Thermal Enthalpy correction       ...      0.00094421 Eh       0.59 kcal/mol
-----------------------------------------------------------------------
Total Enthalpy                    ...   -668.48875468 Eh

Note: Only C1 symmetry has been detected, increase convergence thresholds
      if your molecule has a higher symmetry. Symmetry factor of 1.0 is
      used for the rotational entropy correction.

Note: Rotational entropy computed according to Herzberg

Rotational constants in cm-1:     0.019743     0.013782     0.009234

                             ****ORCA TERMINATED NORMALLY****
TOTAL RUN TIME: 0 days 0 hours 26 minutes 17 seconds 454 msec
