                         Program Version 5.0.4 -  RELEASE  -
|  1> ! B3LYP EPR-II OPT
|  2> %pal nprocs 16 end
|  3> *XYZFile 1 2 model.xyz
|  4>
|  5>                          ****END OF INPUT****
 Total Charge           Charge          ....    1
 Multiplicity           Mult            ....    2
 Number of Electrons    NEL             ....  109
FINAL SINGLE POINT ENERGY      -668.576831929216
FINAL SINGLE POINT ENERGY      -668.578230532180
FINAL SINGLE POINT ENERGY      -668.578299070379
FINAL SINGLE POINT ENERGY      -668.578333633804
FINAL SINGLE POINT ENERGY      -668.578363673302
FINAL SINGLE POINT ENERGY      -668.578392227028
FINAL SINGLE POINT ENERGY      -668.578406078323
FINAL SINGLE POINT ENERGY      -668.578421801764
FINAL SINGLE POINT ENERGY      -668.578431191467
FINAL SINGLE POINT ENERGY      -668.578435279124
FINAL SINGLE POINT ENERGY      -668.578514668548
FINAL SINGLE POINT ENERGY      -668.578540043022
FINAL SINGLE POINT ENERGY      -668.578553024996
FINAL SINGLE POINT ENERGY      -668.578559814251
FINAL SINGLE POINT ENERGY      -668.578566033120
FINAL SINGLE POINT ENERGY      -668.578569927180
FINAL SINGLE POINT ENERGY      -668.578575354921
FINAL SINGLE POINT ENERGY      -668.578580466871
FINAL SINGLE POINT ENERGY      -668.578584084499
                    ***********************HURRAY********************

CARTESIAN COORDINATES (ANGSTROEM)
---------------------------------
  N     -7.849123    0.924409    0.078250
  C     -6.401750    0.872185    0.219965
  C     -6.091914    0.890205    1.730097
  O     -6.815940    1.513692    2.510124
  C     -5.687368    2.042737   -0.513514
  C     -6.111098    3.437003   -0.021257
  C     -5.568349    4.548125   -0.947814
  C     -6.003392    5.900415   -0.506291
  N     -5.504638    7.077268   -1.280063
  H     -6.890913    6.119848    0.077407
  H     -5.640620    7.951844   -0.760907
  H     -5.979153    7.179798   -2.190367
  H     -8.373810    1.113893    0.921864
  C     -8.473464    0.610299   -1.102525
  N     -4.961817    0.228947    2.100739
  H     -4.505344   -0.350147    1.411205
  O     -7.833558    0.365947   -2.125600
  H     -4.500479    6.981892   -1.474721
  C     -4.514367    0.131224    3.490543
  H     -4.684212   -0.874947    3.886840
  H     -3.449971    0.370723    3.564730
  H     -5.090176    0.843453    4.081146
  C     -9.995826    0.578249   -1.065558
  H    -10.382527    1.208356   -1.870438
  H    -10.321507   -0.446142   -1.268112
  H    -10.417641    0.902492   -0.110659
  H     -6.039313   -0.056240   -0.237011
  H     -4.602756    1.918037   -0.405252
  H     -5.927158    1.929854   -1.575785
  H     -5.763364    3.610873    1.001782
  H     -7.204689    3.493287   -0.001252
  H     -4.467990    4.504860   -0.995504
  H     -5.919021    4.361961   -1.980277

 Multiplicity           Mult            ....    2
 Number of Electrons    NEL             ....  109
 Basis Dimension        Dim             ....  371

ORBITAL ENERGIES
----------------
                 SPIN UP ORBITALS
  NO   OCC          E(Eh)            E(eV)
   0   1.0000     -19.205448      -522.6068
   1   1.0000     -19.184923      -522.0483
   2   1.0000     -14.658756      -398.8850
   3   1.0000     -14.455852      -393.3637
   4   1.0000     -14.438226      -392.8841
   5   1.0000     -10.438555      -284.0475
   6   1.0000     -10.388167      -282.6764
   7   1.0000     -10.372873      -282.2602
   8   1.0000     -10.360899      -281.9344
   9   1.0000     -10.332463      -281.1606
  10   1.0000     -10.314772      -280.6792
  11   1.0000     -10.298805      -280.2447
  12   1.0000     -10.296667      -280.1866
  13   1.0000     -10.263205      -279.2760
  14   1.0000      -1.206154       -32.8211
  15   1.0000      -1.129213       -30.7275
  16   1.0000      -1.108228       -30.1564
  17   1.0000      -1.013711       -27.5845
  18   1.0000      -1.004236       -27.3267
  19   1.0000      -0.962647       -26.1950
  20   1.0000      -0.891628       -24.2624
  21   1.0000      -0.846779       -23.0420
  22   1.0000      -0.809727       -22.0338
  23   1.0000      -0.804826       -21.9004
  24   1.0000      -0.784711       -21.3531
  25   1.0000      -0.783239       -21.3130
  26   1.0000      -0.750851       -20.4317
  27   1.0000      -0.717481       -19.5237
  28   1.0000      -0.680289       -18.5116
  29   1.0000      -0.678751       -18.4698
  30   1.0000      -0.655851       -17.8466
  31   1.0000      -0.625694       -17.0260
  32   1.0000      -0.610342       -16.6083
  33   1.0000      -0.593422       -16.1478
  34   1.0000      -0.573183       -15.5971
  35   1.0000      -0.553452       -15.0602
  36   1.0000      -0.549393       -14.9498
  37   1.0000      -0.541552       -14.7364
  38   1.0000      -0.530688       -14.4408
  39   1.0000      -0.528224       -14.3737
  40   1.0000      -0.514546       -14.0015
  41   1.0000      -0.496801       -13.5187
  42   1.0000      -0.486907       -13.2494
  43   1.0000      -0.481244       -13.0953
  44   1.0000      -0.477487       -12.9931
  45   1.0000      -0.471440       -12.8285
  46   1.0000      -0.461473       -12.5573
  47   1.0000      -0.456432       -12.4201
  48   1.0000      -0.454796       -12.3756
  49   1.0000      -0.426673       -11.6104
  50   1.0000      -0.411531       -11.1983
  51   1.0000      -0.356093        -9.6898
  52   1.0000      -0.352163        -9.5828
  53   1.0000      -0.336307        -9.1514
  54   1.0000      -0.330562        -8.9950
  55   0.0000      -0.187907        -5.1132
  56   0.0000      -0.116967        -3.1828
  57   0.0000      -0.106367        -2.8944
  58   0.0000      -0.087944        -2.3931
  59   0.0000      -0.082554        -2.2464

                 SPIN DOWN ORBITALS
  NO   OCC          E(Eh)            E(eV)
   0   1.0000     -19.205446      -522.6068
   1   1.0000     -19.184921      -522.0482
   2   1.0000     -14.659476      -398.9046
   3   1.0000     -14.455852      -393.3637
   4   1.0000     -14.438226      -392.8841
   5   1.0000     -10.423624      -283.6412
   6   1.0000     -10.388164      -282.6763
   7   1.0000     -10.372874      -282.2602
   8   1.0000     -10.361552      -281.9522
   9   1.0000     -10.332470      -281.1608
  10   1.0000     -10.314713      -280.6776
  11   1.0000     -10.298805      -280.2447
  12   1.0000     -10.296673      -280.1867
  13   1.0000     -10.263205      -279.2760
  14   1.0000      -1.202058       -32.7097
  15   1.0000      -1.129210       -30.7274
  16   1.0000      -1.108224       -30.1563
  17   1.0000      -1.013710       -27.5845
  18   1.0000      -1.004208       -27.3259
  19   1.0000      -0.951204       -25.8836
  20   1.0000      -0.884698       -24.0739
  21   1.0000      -0.839175       -22.8351
  22   1.0000      -0.807090       -21.9620
  23   1.0000      -0.802935       -21.8490
  24   1.0000      -0.782923       -21.3044
  25   1.0000      -0.776775       -21.1371
  26   1.0000      -0.749320       -20.3900
  27   1.0000      -0.716172       -19.4880
  28   1.0000      -0.678779       -18.4705
  29   1.0000      -0.672573       -18.3016
  30   1.0000      -0.653948       -17.7948
  31   1.0000      -0.624137       -16.9836
  32   1.0000      -0.601470       -16.3668
  33   1.0000      -0.587900       -15.9976
  34   1.0000      -0.572374       -15.5751
  35   1.0000      -0.552929       -15.0460
  36   1.0000      -0.547315       -14.8932
  37   1.0000      -0.539898       -14.6914
  38   1.0000      -0.529611       -14.4114
  39   1.0000      -0.525401       -14.2969
  40   1.0000      -0.513757       -13.9801
  41   1.0000      -0.495953       -13.4956
  42   1.0000      -0.486521       -13.2389
  43   1.0000      -0.480709       -13.0808
  44   1.0000      -0.477443       -12.9919
  45   1.0000      -0.471167       -12.8211
  46   1.0000      -0.460959       -12.5433
  47   1.0000      -0.455923       -12.4063
  48   1.0000      -0.454616       -12.3707
  49   1.0000      -0.426511       -11.6060
  50   1.0000      -0.356109        -9.6902
  51   1.0000      -0.352164        -9.5829
  52   1.0000      -0.336279        -9.1506
  53   1.0000      -0.330550        -8.9947
  54   0.0000      -0.257704        -7.0125
  55   0.0000      -0.186277        -5.0688
  56   0.0000      -0.115388        -3.1399
  57   0.0000      -0.102380        -2.7859
  58   0.0000      -0.082594        -2.2475

MULLIKEN ATOMIC CHARGES AND SPIN POPULATIONS
--------------------------------------------
   0 N :   -0.136667    0.000065
   1 C :   -0.106723   -0.000145
   2 C :    0.082935    0.000083
   3 O :   -0.326291    0.000085
   4 C :   -0.268308   -0.001280
   5 C :   -0.278628    0.006083
   6 C :   -0.251568   -0.057123
   7 C :   -0.132226    0.988837
   8 N :   -0.349447   -0.036808
   9 H :    0.215471   -0.040302
  10 H :    0.338398    0.003857
  11 H :    0.334958    0.038050
  12 H :    0.258388   -0.000004
  13 C :    0.169822   -0.000012
  14 N :   -0.105790    0.000004
  15 H :    0.237273   -0.000006
  16 O :   -0.316628    0.000087
  17 H :    0.335170    0.009932
  18 C :   -0.448696    0.000000
  19 H :    0.180465   -0.000002
  20 H :    0.164942    0.000000
  21 H :    0.199344   -0.000000
  22 C :   -0.542349    0.000029
  23 H :    0.184661    0.000001
  24 H :    0.199388   -0.000003
  25 H :    0.150309   -0.000002
  26 H :    0.158554    0.000041
  27 H :    0.146180    0.000494
  28 H :    0.183292    0.000322
  29 H :    0.182587   -0.000916
  30 H :    0.175987   -0.000637
  31 H :    0.178093    0.030550
  32 H :    0.187103    0.058719
Sum of atomic charges         :    1.0000000

LOEWDIN ATOMIC CHARGES AND SPIN POPULATIONS
-------------------------------------------
   0 N :    0.056442    0.000013
   1 C :   -0.040650   -0.000161
   2 C :   -0.100377    0.000109
   3 O :   -0.193610    0.000070
   4 C :   -0.049893    0.000078
   5 C :   -0.051852    0.002205
   6 C :   -0.086064    0.012323
   7 C :    0.030523    0.852236
   8 N :    0.349782   -0.000003
   9 H :    0.062589    0.007381
  10 H :    0.131984    0.004130
  11 H :    0.131462    0.034330
  12 H :    0.092277   -0.000001
  13 C :   -0.101884   -0.000013
  14 N :    0.048964   -0.000008
  15 H :    0.082854    0.000000
  16 O :   -0.190952    0.000071
  17 H :    0.133036    0.010409
  18 C :    0.020099    0.000001
  19 H :    0.038629   -0.000001
  20 H :    0.034584   -0.000000
  21 H :    0.054867    0.000001
  22 C :   -0.035796    0.000017
  23 H :    0.055003   -0.000000
  24 H :    0.061966   -0.000001
  25 H :    0.035619   -0.000000
  26 H :    0.064865   -0.000012
  27 H :    0.049679    0.000359
  28 H :    0.062132    0.000470
  29 H :    0.057179   -0.000351
  30 H :    0.057177   -0.000181
  31 H :    0.065015    0.026894
  32 H :    0.074349    0.049637

  Mayer bond orders larger than 0.100000
B(  0-N ,  1-C ) :   1.0203 B(  0-N , 12-H ) :   0.8964 B(  0-N , 13-C ) :   1.1900
B(  1-C ,  2-C ) :   0.8954 B(  1-C ,  4-C ) :   0.9354 B(  1-C , 16-O ) :   0.1257
B(  1-C , 26-H ) :   0.9732 B(  2-C ,  3-O ) :   1.8622 B(  2-C , 14-N ) :   1.2053
B(  4-C ,  5-C ) :   0.9637 B(  4-C , 27-H ) :   0.9693 B(  4-C , 28-H ) :   0.9554
B(  5-C ,  6-C ) :   0.9518 B(  5-C , 29-H ) :   0.9633 B(  5-C , 30-H ) :   0.9653
B(  6-C ,  7-C ) :   0.9963 B(  6-C , 31-H ) :   0.9454 B(  6-C , 32-H ) :   0.9416
B(  7-C ,  8-N ) :   0.8948 B(  7-C ,  9-H ) :   0.9397 B(  8-N , 10-H ) :   0.8845
B(  8-N , 11-H ) :   0.8705 B(  8-N , 17-H ) :   0.8831 B( 13-C , 16-O ) :   1.8671
B( 13-C , 22-C ) :   0.9026 B( 14-N , 15-H ) :   0.9265 B( 14-N , 18-C ) :   0.9637
B( 18-C , 19-H ) :   0.9542 B( 18-C , 20-H ) :   0.9586 B( 18-C , 21-H ) :   0.9441
B( 22-C , 23-H ) :   0.9572 B( 22-C , 24-H ) :   0.9501 B( 22-C , 25-H ) :   0.9742

FINAL SINGLE POINT ENERGY      -668.578585951951

DIPOLE MOMENT
-------------
                                X             Y             Z
Electronic contribution:     -1.68311      -2.72453      -0.25905
Nuclear contribution   :      4.05697       9.97340      -1.26191
                        -----------------------------------------
Total Dipole Moment    :      2.37387       7.24886      -1.52096
                        -----------------------------------------
Magnitude (a.u.)       :      7.77782
Magnitude (Debye)      :     19.76966

Rotational constants in cm-1:     0.019788     0.012998     0.008893
Rotational constants in MHz :   593.224808   389.662622   266.592169

                             ****ORCA TERMINATED NORMALLY****
TOTAL RUN TIME: 0 days 0 hours 14 minutes 42 seconds 164 msec
