                         Program Version 5.0.4 -  RELEASE  -
|  1> ! B3LYP EPR-II AUTOAUX
|  2> %pal nprocs 16 end
|  3> *XYZFile 0 2 opt.xyz
|  4> %EPRNMR
|  5>         GTENSOR   TRUE
|  6>         NUCLEI    = 1,4,9,10,11,12,13,14,15,16,17,18,19,20,22,23,24 {SHIFT, AISO, ADIP, AORB}
|  7>         ORI       GIAO
|  8> END
|  9>
| 10>                          ****END OF INPUT****

CARTESIAN COORDINATES (ANGSTROEM)
---------------------------------
  N     -2.061554    0.694510    0.713634
  C     -1.348457   -0.266449    0.017317
  C     -2.018757   -1.578632    0.094575
  O     -3.107374   -1.699142    0.691081
  C     -0.055623    0.025537   -0.692095
  C      1.199870   -0.072670    0.215641
  C      2.493443    0.245074   -0.551831
  C      3.745564    0.174602    0.333207
  N      4.957184    0.461259   -0.458873
  H     -0.097612    1.034765   -1.107655
  H      0.052961   -0.663767   -1.538928
  H      1.263485   -1.079087    0.651885
  H      1.079423    0.631795    1.044896
  H      2.413630    1.253384   -0.981943
  H      2.622348   -0.448447   -1.392639
  H      3.843506   -0.840914    0.736940
  H      3.611258    0.851722    1.194334
  H      5.776761    0.399157    0.139872
  H      4.922886    1.425483   -0.781854
  H     -2.921880    0.300149    1.092508
  C     -1.774510    2.025500    0.960626
  N     -1.408227   -2.640135   -0.532963
  H     -0.462848   -2.521912   -0.859676
  O     -0.739289    2.579108    0.594153
  C     -2.858181    2.775914    1.726869
  H     -2.398445    3.264468    2.590040
  H     -3.258368    3.561672    1.078738
  H     -3.680383    2.140098    2.064759
  C     -1.934826   -3.994535   -0.423263
  H     -3.017955   -3.935714   -0.314739
  H     -1.690833   -4.557464   -1.328264
  H     -1.530930   -4.525251    0.448760

 Total Charge           Charge          ....    0
 Multiplicity           Mult            ....    2
 Number of Electrons    NEL             ....  109
 Basis Dimension        Dim             ....  364

ORBITAL ENERGIES
----------------
                 SPIN UP ORBITALS
  NO   OCC          E(Eh)            E(eV)
   0   1.0000     -19.118267      -520.2345
   1   1.0000     -19.108170      -519.9597
   2   1.0000     -14.381049      -391.3282
   3   1.0000     -14.361184      -390.7877
   4   1.0000     -14.306558      -389.3012
   5   1.0000     -10.302710      -280.3510
   6   1.0000     -10.292780      -280.0808
   7   1.0000     -10.247186      -278.8401
   8   1.0000     -10.217102      -278.0215
   9   1.0000     -10.204807      -277.6869
  10   1.0000     -10.198282      -277.5093
  11   1.0000     -10.194635      -277.4101
  12   1.0000     -10.186742      -277.1953
  13   1.0000     -10.179121      -276.9880
  14   1.0000      -1.043513       -28.3954
  15   1.0000      -1.029475       -28.0134
  16   1.0000      -0.943744       -25.6806
  17   1.0000      -0.920006       -25.0346
  18   1.0000      -0.874183       -23.7877
  19   1.0000      -0.805333       -21.9142
  20   1.0000      -0.764555       -20.8046
  21   1.0000      -0.732585       -19.9347
  22   1.0000      -0.708577       -19.2813
  23   1.0000      -0.674140       -18.3443
  24   1.0000      -0.627535       -17.0761
  25   1.0000      -0.595631       -16.2080
  26   1.0000      -0.581903       -15.8344
  27   1.0000      -0.561039       -15.2666
  28   1.0000      -0.549824       -14.9615
  29   1.0000      -0.485894       -13.2219
  30   1.0000      -0.481780       -13.1099
  31   1.0000      -0.470719       -12.8089
  32   1.0000      -0.463217       -12.6048
  33   1.0000      -0.456769       -12.4293
  34   1.0000      -0.452003       -12.2996
  35   1.0000      -0.448797       -12.2124
  36   1.0000      -0.442365       -12.0374
  37   1.0000      -0.421927       -11.4812
  38   1.0000      -0.413072       -11.2403
  39   1.0000      -0.405693       -11.0395
  40   1.0000      -0.404441       -11.0054
  41   1.0000      -0.399655       -10.8752
  42   1.0000      -0.391359       -10.6494
  43   1.0000      -0.378506       -10.2997
  44   1.0000      -0.375376       -10.2145
  45   1.0000      -0.357514        -9.7285
  46   1.0000      -0.341829        -9.3016
  47   1.0000      -0.337446        -9.1824
  48   1.0000      -0.327785        -8.9195
  49   1.0000      -0.314180        -8.5493
  50   1.0000      -0.269417        -7.3312
  51   1.0000      -0.261541        -7.1169
  52   1.0000      -0.260151        -7.0791
  53   1.0000      -0.236483        -6.4350
  54   1.0000      -0.177291        -4.8243
  55   0.0000       0.010201         0.2776
  56   0.0000       0.010847         0.2952
  57   0.0000       0.022875         0.6225
  58   0.0000       0.027942         0.7603
  59   0.0000       0.031989         0.8705

                 SPIN DOWN ORBITALS
  NO   OCC          E(Eh)            E(eV)
   0   1.0000     -19.115633      -520.1628
   1   1.0000     -19.105604      -519.8899
   2   1.0000     -14.379569      -391.2880
   3   1.0000     -14.359688      -390.7470
   4   1.0000     -14.306533      -389.3006
   5   1.0000     -10.302182      -280.3366
   6   1.0000     -10.293082      -280.0890
   7   1.0000     -10.237359      -278.5727
   8   1.0000     -10.217196      -278.0240
   9   1.0000     -10.204785      -277.6863
  10   1.0000     -10.198876      -277.5255
  11   1.0000     -10.194735      -277.4128
  12   1.0000     -10.185777      -277.1691
  13   1.0000     -10.179033      -276.9856
  14   1.0000      -1.038473       -28.2583
  15   1.0000      -1.025034       -27.8926
  16   1.0000      -0.936637       -25.4872
  17   1.0000      -0.916314       -24.9342
  18   1.0000      -0.874093       -23.7853
  19   1.0000      -0.799825       -21.7643
  20   1.0000      -0.759304       -20.6617
  21   1.0000      -0.730627       -19.8814
  22   1.0000      -0.707564       -19.2538
  23   1.0000      -0.667331       -18.1590
  24   1.0000      -0.625800       -17.0289
  25   1.0000      -0.593235       -16.1428
  26   1.0000      -0.581152       -15.8140
  27   1.0000      -0.557809       -15.1787
  28   1.0000      -0.545842       -14.8531
  29   1.0000      -0.485284       -13.2052
  30   1.0000      -0.480465       -13.0741
  31   1.0000      -0.468266       -12.7422
  32   1.0000      -0.454719       -12.3735
  33   1.0000      -0.454214       -12.3598
  34   1.0000      -0.447847       -12.1865
  35   1.0000      -0.444748       -12.1022
  36   1.0000      -0.441413       -12.0115
  37   1.0000      -0.418728       -11.3942
  38   1.0000      -0.408350       -11.1118
  39   1.0000      -0.403557       -10.9813
  40   1.0000      -0.400521       -10.8987
  41   1.0000      -0.395139       -10.7523
  42   1.0000      -0.389840       -10.6081
  43   1.0000      -0.375438       -10.2162
  44   1.0000      -0.368015       -10.0142
  45   1.0000      -0.355698        -9.6790
  46   1.0000      -0.339559        -9.2399
  47   1.0000      -0.333999        -9.0886
  48   1.0000      -0.327276        -8.9056
  49   1.0000      -0.296610        -8.0712
  50   1.0000      -0.262856        -7.1527
  51   1.0000      -0.258897        -7.0449
  52   1.0000      -0.249820        -6.7980
  53   1.0000      -0.236427        -6.4335
  54   0.0000      -0.085433        -2.3247
  55   0.0000       0.011155         0.3035
  56   0.0000       0.022811         0.6207
  57   0.0000       0.023377         0.6361
  58   0.0000       0.028455         0.7743

MULLIKEN ATOMIC CHARGES AND SPIN POPULATIONS
--------------------------------------------
   0 N :   -0.026409    0.059239
   1 C :    0.148129    0.648182
   2 C :    0.015321   -0.008078
   3 O :   -0.382008    0.096235
   4 C :   -0.339376   -0.038894
   5 C :   -0.269812    0.029212
   6 C :   -0.266657    0.004989
   7 C :   -0.305603    0.000674
   8 N :   -0.454302    0.000792
   9 H :    0.187455    0.010898
  10 H :    0.121545    0.005815
  11 H :    0.139013   -0.000774
  12 H :    0.178481   -0.001385
  13 H :    0.155306   -0.000119
  14 H :    0.155043   -0.000170
  15 H :    0.155843    0.000004
  16 H :    0.141037   -0.000055
  17 H :    0.209284    0.000233
  18 H :    0.211075   -0.000046
  19 H :    0.251088   -0.003763
  20 C :    0.103469    0.034094
  21 N :   -0.115842    0.060661
  22 H :    0.224768   -0.002343
  23 O :   -0.288100    0.095927
  24 C :   -0.544685   -0.004072
  25 H :    0.187628    0.004530
  26 H :    0.188368    0.004663
  27 H :    0.152121   -0.000092
  28 C :   -0.447773   -0.005889
  29 H :    0.198393    0.000564
  30 H :    0.150359    0.001926
  31 H :    0.166840    0.007043
Sum of atomic charges         :    0.0000000

LOEWDIN ATOMIC CHARGES AND SPIN POPULATIONS
-------------------------------------------
   0 N :    0.128192    0.073339
   1 C :   -0.042119    0.525864
   2 C :   -0.110569    0.035389
   3 O :   -0.228201    0.092836
   4 C :   -0.059438    0.007655
   5 C :   -0.070924    0.033792
   6 C :   -0.086160    0.003928
   7 C :   -0.061212    0.000944
   8 N :   -0.097240    0.000708
   9 H :    0.068140    0.007968
  10 H :    0.044172    0.004665
  11 H :    0.040837   -0.000114
  12 H :    0.053898    0.000024
  13 H :    0.046324    0.000028
  14 H :    0.046961    0.000013
  15 H :    0.037150    0.000028
  16 H :    0.025368   -0.000006
  17 H :    0.048870    0.000172
  18 H :    0.051852    0.000002
  19 H :    0.102947    0.002128
  20 C :   -0.100017    0.048498
  21 N :    0.032068    0.056678
  22 H :    0.073922    0.000852
  23 O :   -0.171134    0.091086
  24 C :   -0.039861   -0.000087
  25 H :    0.055009    0.003296
  26 H :    0.056141    0.003647
  27 H :    0.035145   -0.000164
  28 C :    0.006529    0.000014
  29 H :    0.051597    0.000522
  30 H :    0.030810    0.001489
  31 H :    0.030940    0.004806

  Mayer bond orders larger than 0.100000
B(  0-N ,  1-C ) :   1.2384 B(  0-N , 19-H ) :   0.8708 B(  0-N , 20-C ) :   1.1598
B(  1-C ,  2-C ) :   1.0726 B(  1-C ,  4-C ) :   0.9628 B(  2-C ,  3-O ) :   1.7392
B(  2-C , 21-N ) :   1.1674 B(  4-C ,  5-C ) :   0.9460 B(  4-C ,  9-H ) :   0.9611
B(  4-C , 10-H ) :   0.9880 B(  5-C ,  6-C ) :   0.9531 B(  5-C , 11-H ) :   0.9846
B(  5-C , 12-H ) :   0.9645 B(  6-C ,  7-C ) :   0.9563 B(  6-C , 13-H ) :   0.9779
B(  6-C , 14-H ) :   0.9722 B(  7-C ,  8-N ) :   1.0323 B(  7-C , 15-H ) :   0.9627
B(  7-C , 16-H ) :   0.9419 B(  8-N , 17-H ) :   0.9450 B(  8-N , 18-H ) :   0.9467
B( 20-C , 23-O ) :   1.8947 B( 20-C , 24-C ) :   0.8979 B( 21-N , 22-H ) :   0.9304
B( 21-N , 28-C ) :   0.9721 B( 24-C , 25-H ) :   0.9576 B( 24-C , 26-H ) :   0.9549
B( 24-C , 27-H ) :   0.9740 B( 28-C , 29-H ) :   0.9456 B( 28-C , 30-H ) :   0.9665
B( 28-C , 31-H ) :   0.9541

FINAL SINGLE POINT ENERGY      -668.243410433437

DIPOLE MOMENT
-------------
                                X             Y             Z
Electronic contribution:    -11.20530       1.54883       0.90242
Nuclear contribution   :     11.55190      -1.91581      -0.76443
                        -----------------------------------------
Total Dipole Moment    :      0.34659      -0.36698       0.13799
                        -----------------------------------------
Magnitude (a.u.)       :      0.52330
Magnitude (Debye)      :      1.33012

Rotational constants in cm-1:     0.021435     0.012700     0.008302
Rotational constants in MHz :   642.610945   380.744621   248.899591

CHEMICAL SHIELDING SUMMARY (ppm)  --  Orbital contribution
----------------------------------------------------------

  Nucleus  Element    Isotropic     Anisotropy
  -------  -------  ------------   ------------
      0       N           87.395        121.508
      3       O           -7.778        541.552
      8       N          224.360         34.473
      9       H           28.278          5.016
     10       H           30.031          5.397
     11       H           30.855          4.737
     12       H           29.985          5.550
     13       H           30.413          4.337
     14       H           30.295          4.784
     15       H           29.436          4.510
     16       H           28.887          5.687
     17       H           31.210         14.241
     18       H           31.661         11.270
     19       H           22.633          9.052
     21       N          157.745         76.976
     22       H           27.254          8.390
     23       O         -103.489       -496.792

                             ****ORCA TERMINATED NORMALLY****
TOTAL RUN TIME: 0 days 0 hours 8 minutes 32 seconds 45 msec
