                         Program Version 5.0.4 -  RELEASE  -
|  1> ! M062X def2-TZVP OPT FREQ
|  2> %pal nprocs 16 end
|  3> *XYZFile 0 2 opt.xyz
|  4>
|  5>                          ****END OF INPUT****
 Total Charge           Charge          ....    0
 Multiplicity           Mult            ....    2
 Number of Electrons    NEL             ....  109
FINAL SINGLE POINT ENERGY      -668.466347608033
FINAL SINGLE POINT ENERGY      -668.469204132695
FINAL SINGLE POINT ENERGY      -668.469304714136
FINAL SINGLE POINT ENERGY      -668.469316398113
FINAL SINGLE POINT ENERGY      -668.469316637277
FINAL SINGLE POINT ENERGY      -668.469325494608
FINAL SINGLE POINT ENERGY      -668.469328330533
FINAL SINGLE POINT ENERGY      -668.469330490711
FINAL SINGLE POINT ENERGY      -668.469319273082
FINAL SINGLE POINT ENERGY      -668.469318504850
FINAL SINGLE POINT ENERGY      -668.469356735353
FINAL SINGLE POINT ENERGY      -668.469401202096
FINAL SINGLE POINT ENERGY      -668.469451235497
FINAL SINGLE POINT ENERGY      -668.469470339833
FINAL SINGLE POINT ENERGY      -668.469485381724
FINAL SINGLE POINT ENERGY      -668.469498346977
FINAL SINGLE POINT ENERGY      -668.469509424768
FINAL SINGLE POINT ENERGY      -668.469506674797
FINAL SINGLE POINT ENERGY      -668.469508577932
                    ***********************HURRAY********************

CARTESIAN COORDINATES (ANGSTROEM)
---------------------------------
  N     -2.039388    0.671723    0.718452
  C     -1.341578   -0.282425    0.023000
  C     -1.984386   -1.590287    0.104965
  O     -3.045864   -1.737450    0.711022
  C     -0.072491    0.011705   -0.696423
  C      1.170645   -0.101602    0.198296
  C      2.442067    0.274773   -0.548146
  C      3.681544    0.181236    0.325857
  N      4.872369    0.527805   -0.445056
  H     -0.113983    1.021079   -1.102664
  H      0.024080   -0.667559   -1.547787
  H      1.251656   -1.122277    0.587508
  H      1.036573    0.559964    1.055988
  H      2.342100    1.299698   -0.921725
  H      2.580506   -0.368193   -1.422099
  H      3.797093   -0.847034    0.678405
  H      3.536438    0.809218    1.215380
  H      5.707106    0.442647    0.121162
  H      4.820000    1.492598   -0.751155
  H     -2.907517    0.306327    1.097589
  C     -1.692445    1.973082    0.991250
  N     -1.380355   -2.633660   -0.525525
  H     -0.443016   -2.525663   -0.867936
  O     -0.628610    2.460290    0.670474
  C     -2.753965    2.768437    1.711963
  H     -2.275988    3.343925    2.501965
  H     -3.193555    3.473000    1.004879
  H     -3.544936    2.149776    2.131540
  C     -1.945045   -3.962059   -0.416120
  H     -2.977777   -3.953107   -0.760925
  H     -1.365253   -4.641487   -1.036070
  H     -1.939760   -4.314399    0.617042

 Multiplicity           Mult            ....    2
 Number of Electrons    NEL             ....  109
 Basis Dimension        Dim             ....  542

ORBITAL ENERGIES
----------------
                 SPIN UP ORBITALS
  NO   OCC          E(Eh)            E(eV)
   0   1.0000     -19.604355      -533.4616
   1   1.0000     -19.590317      -533.0796
   2   1.0000     -14.797872      -402.6706
   3   1.0000     -14.774116      -402.0241
   4   1.0000     -14.722289      -400.6138
   5   1.0000     -10.654779      -289.9313
   6   1.0000     -10.639604      -289.5183
   7   1.0000     -10.595662      -288.3226
   8   1.0000     -10.569028      -287.5979
   9   1.0000     -10.553980      -287.1884
  10   1.0000     -10.547412      -287.0097
  11   1.0000     -10.546776      -286.9924
  12   1.0000     -10.535072      -286.6739
  13   1.0000     -10.527264      -286.4614
  14   1.0000      -1.180530       -32.1239
  15   1.0000      -1.163918       -31.6718
  16   1.0000      -1.063383       -28.9361
  17   1.0000      -1.035549       -28.1787
  18   1.0000      -0.987666       -26.8758
  19   1.0000      -0.915035       -24.8994
  20   1.0000      -0.869729       -23.6665
  21   1.0000      -0.834564       -22.7096
  22   1.0000      -0.806157       -21.9366
  23   1.0000      -0.767896       -20.8955
  24   1.0000      -0.718894       -19.5621
  25   1.0000      -0.682805       -18.5801
  26   1.0000      -0.669849       -18.2275
  27   1.0000      -0.649120       -17.6634
  28   1.0000      -0.636260       -17.3135
  29   1.0000      -0.571286       -15.5455
  30   1.0000      -0.563713       -15.3394
  31   1.0000      -0.555432       -15.1141
  32   1.0000      -0.547898       -14.9091
  33   1.0000      -0.536222       -14.5913
  34   1.0000      -0.535043       -14.5593
  35   1.0000      -0.527705       -14.3596
  36   1.0000      -0.517743       -14.0885
  37   1.0000      -0.500047       -13.6070
  38   1.0000      -0.490201       -13.3390
  39   1.0000      -0.479129       -13.0378
  40   1.0000      -0.476097       -12.9553
  41   1.0000      -0.473978       -12.8976
  42   1.0000      -0.463356       -12.6085
  43   1.0000      -0.451856       -12.2956
  44   1.0000      -0.449458       -12.2304
  45   1.0000      -0.424747       -11.5580
  46   1.0000      -0.409119       -11.1327
  47   1.0000      -0.404355       -11.0031
  48   1.0000      -0.390097       -10.6151
  49   1.0000      -0.385119       -10.4796
  50   1.0000      -0.347538        -9.4570
  51   1.0000      -0.342237        -9.3128
  52   1.0000      -0.332907        -9.0589
  53   1.0000      -0.306225        -8.3328
  54   1.0000      -0.227745        -6.1973
  55   0.0000       0.045129         1.2280
  56   0.0000       0.047773         1.3000
  57   0.0000       0.066354         1.8056
  58   0.0000       0.068727         1.8701
  59   0.0000       0.086934         2.3656

                 SPIN DOWN ORBITALS
  NO   OCC          E(Eh)            E(eV)
   0   1.0000     -19.602526      -533.4119
   1   1.0000     -19.588263      -533.0237
   2   1.0000     -14.796963      -402.6458
   3   1.0000     -14.773117      -401.9969
   4   1.0000     -14.722271      -400.6134
   5   1.0000     -10.654781      -289.9313
   6   1.0000     -10.640049      -289.5305
   7   1.0000     -10.590827      -288.1911
   8   1.0000     -10.569083      -287.5994
   9   1.0000     -10.553966      -287.1880
  10   1.0000     -10.547870      -287.0221
  11   1.0000     -10.546835      -286.9940
  12   1.0000     -10.534360      -286.6545
  13   1.0000     -10.527209      -286.4599
  14   1.0000      -1.175418       -31.9847
  15   1.0000      -1.158822       -31.5331
  16   1.0000      -1.055169       -28.7126
  17   1.0000      -1.031325       -28.0638
  18   1.0000      -0.987572       -26.8732
  19   1.0000      -0.909048       -24.7365
  20   1.0000      -0.864168       -23.5152
  21   1.0000      -0.831996       -22.6398
  22   1.0000      -0.804704       -21.8971
  23   1.0000      -0.760318       -20.6893
  24   1.0000      -0.716403       -19.4943
  25   1.0000      -0.679924       -18.5017
  26   1.0000      -0.668809       -18.1992
  27   1.0000      -0.644232       -17.5304
  28   1.0000      -0.631732       -17.1903
  29   1.0000      -0.568973       -15.4825
  30   1.0000      -0.562894       -15.3171
  31   1.0000      -0.548807       -14.9338
  32   1.0000      -0.539357       -14.6767
  33   1.0000      -0.533540       -14.5184
  34   1.0000      -0.528706       -14.3868
  35   1.0000      -0.523152       -14.2357
  36   1.0000      -0.516097       -14.0437
  37   1.0000      -0.496561       -13.5121
  38   1.0000      -0.485345       -13.2069
  39   1.0000      -0.475027       -12.9261
  40   1.0000      -0.471901       -12.8411
  41   1.0000      -0.468405       -12.7459
  42   1.0000      -0.462238       -12.5781
  43   1.0000      -0.445918       -12.1340
  44   1.0000      -0.442781       -12.0487
  45   1.0000      -0.422613       -11.4999
  46   1.0000      -0.404220       -10.9994
  47   1.0000      -0.399289       -10.8652
  48   1.0000      -0.389331       -10.5942
  49   1.0000      -0.367085        -9.9889
  50   1.0000      -0.342659        -9.3242
  51   1.0000      -0.338053        -9.1989
  52   1.0000      -0.316850        -8.6219
  53   1.0000      -0.306133        -8.3303
  54   0.0000      -0.051378        -1.3981
  55   0.0000       0.045687         1.2432
  56   0.0000       0.062520         1.7013
  57   0.0000       0.066476         1.8089
  58   0.0000       0.067993         1.8502

MULLIKEN ATOMIC CHARGES AND SPIN POPULATIONS
--------------------------------------------
   0 N :   -0.317959    0.060252
   1 C :    0.113370    0.686961
   2 C :    0.374417   -0.021224
   3 O :   -0.463434    0.104905
   4 C :   -0.449000   -0.051084
   5 C :   -0.278733    0.016013
   6 C :   -0.247515    0.009804
   7 C :   -0.148792   -0.000391
   8 N :   -0.551669    0.000358
   9 H :    0.202481    0.009455
  10 H :    0.167775    0.007372
  11 H :    0.143109   -0.001655
  12 H :    0.174743   -0.000234
  13 H :    0.142381   -0.000462
  14 H :    0.138160   -0.000304
  15 H :    0.123503    0.000032
  16 H :    0.126074    0.000056
  17 H :    0.225433    0.000213
  18 H :    0.227072   -0.000018
  19 H :    0.271248   -0.004940
  20 C :    0.384727    0.026284
  21 N :   -0.366157    0.059889
  22 H :    0.245411   -0.003081
  23 O :   -0.390685    0.097143
  24 C :   -0.456265   -0.004889
  25 H :    0.161600    0.003578
  26 H :    0.161833    0.004207
  27 H :    0.136076    0.000400
  28 C :   -0.295576   -0.006121
  29 H :    0.160002    0.002659
  30 H :    0.134328    0.000108
  31 H :    0.152042    0.004716
Sum of atomic charges         :    0.0000000

LOEWDIN ATOMIC CHARGES AND SPIN POPULATIONS
-------------------------------------------
   0 N :    0.197714    0.087459
   1 C :   -0.147088    0.471823
   2 C :   -0.459602    0.074859
   3 O :    0.022828    0.088804
   4 C :   -0.243948    0.040323
   5 C :   -0.262942    0.028739
   6 C :   -0.275713    0.003857
   7 C :   -0.346311    0.001112
   8 N :   -0.183512    0.000555
   9 H :    0.159246    0.006062
  10 H :    0.141920    0.004366
  11 H :    0.133541   -0.000022
  12 H :    0.145641    0.000540
  13 H :    0.140968   -0.000052
  14 H :    0.138345   -0.000053
  15 H :    0.127985    0.000015
  16 H :    0.116396    0.000003
  17 H :    0.146172    0.000146
  18 H :    0.148813    0.000015
  19 H :    0.212851    0.001158
  20 C :   -0.457115    0.047894
  21 N :    0.088467    0.046695
  22 H :    0.180230    0.000371
  23 O :    0.081399    0.079224
  24 C :   -0.261763    0.003274
  25 H :    0.138754    0.001938
  26 H :    0.141369    0.002584
  27 H :    0.124722   -0.000123
  28 C :   -0.306939    0.004136
  29 H :    0.124161    0.001658
  30 H :    0.115923    0.000003
  31 H :    0.117490    0.002638

  Mayer bond orders larger than 0.100000
B(  0-N ,  1-C ) :   1.1387 B(  0-N , 19-H ) :   0.8737 B(  0-N , 20-C ) :   1.1339
B(  1-C ,  2-C ) :   1.1707 B(  1-C ,  4-C ) :   0.8959 B(  2-C ,  3-O ) :   1.7920
B(  2-C , 21-N ) :   1.1867 B(  4-C ,  5-C ) :   0.8254 B(  4-C ,  9-H ) :   0.9748
B(  4-C , 10-H ) :   1.0149 B(  5-C ,  6-C ) :   0.8954 B(  5-C , 11-H ) :   0.9830
B(  5-C , 12-H ) :   0.9785 B(  6-C ,  7-C ) :   0.9391 B(  6-C , 13-H ) :   0.9756
B(  6-C , 14-H ) :   0.9807 B(  7-C ,  8-N ) :   0.9775 B(  7-C , 15-H ) :   0.9676
B(  7-C , 16-H ) :   0.9906 B(  8-N , 17-H ) :   0.9372 B(  8-N , 18-H ) :   0.9319
B( 20-C , 23-O ) :   1.9188 B( 20-C , 24-C ) :   0.9148 B( 21-N , 22-H ) :   0.9158
B( 21-N , 28-C ) :   0.9298 B( 24-C , 25-H ) :   0.9677 B( 24-C , 26-H ) :   0.9460
B( 24-C , 27-H ) :   0.9866 B( 28-C , 29-H ) :   0.9694 B( 28-C , 30-H ) :   0.9660
B( 28-C , 31-H ) :   0.9727

FINAL SINGLE POINT ENERGY      -668.469505688638

DIPOLE MOMENT
-------------
                                X             Y             Z
Electronic contribution:    -10.88236       1.34710       1.12147
Nuclear contribution   :     11.14098      -1.55874      -1.05372
                        -----------------------------------------
Total Dipole Moment    :      0.25863      -0.21164       0.06775
                        -----------------------------------------
Magnitude (a.u.)       :      0.34098
Magnitude (Debye)      :      0.86671

VIBRATIONAL FREQUENCIES
-----------------------

Scaling factor for frequencies =  1.000000000  (already applied!)

   0:         0.00 cm**-1
   1:         0.00 cm**-1
   2:         0.00 cm**-1
   3:         0.00 cm**-1
   4:         0.00 cm**-1
   5:         0.00 cm**-1
   6:        21.47 cm**-1
   7:        49.79 cm**-1
   8:        61.24 cm**-1
   9:        74.67 cm**-1
  10:        84.64 cm**-1
  11:       112.68 cm**-1
  12:       120.54 cm**-1
  13:       126.91 cm**-1
  14:       135.39 cm**-1
  15:       144.26 cm**-1
  16:       161.55 cm**-1
  17:       174.03 cm**-1
  18:       221.08 cm**-1
  19:       262.55 cm**-1
  20:       267.99 cm**-1
  21:       302.06 cm**-1
  22:       316.79 cm**-1
  23:       348.10 cm**-1
  24:       383.84 cm**-1
  25:       390.98 cm**-1
  26:       419.05 cm**-1
  27:       496.59 cm**-1
  28:       532.66 cm**-1
  29:       608.71 cm**-1
  30:       626.05 cm**-1
  31:       718.29 cm**-1
  32:       747.04 cm**-1
  33:       750.78 cm**-1
  34:       763.83 cm**-1
  35:       798.08 cm**-1
  36:       853.80 cm**-1
  37:       862.66 cm**-1
  38:       935.56 cm**-1
  39:       944.85 cm**-1
  40:       993.26 cm**-1
  41:      1023.50 cm**-1
  42:      1038.65 cm**-1
  43:      1057.07 cm**-1
  44:      1072.44 cm**-1
  45:      1076.14 cm**-1
  46:      1105.57 cm**-1
  47:      1117.97 cm**-1
  48:      1154.98 cm**-1
  49:      1160.60 cm**-1
  50:      1184.93 cm**-1
  51:      1212.13 cm**-1
  52:      1237.65 cm**-1
  53:      1258.54 cm**-1
  54:      1271.75 cm**-1
  55:      1302.65 cm**-1
  56:      1326.35 cm**-1
  57:      1331.93 cm**-1
  58:      1347.68 cm**-1
  59:      1357.48 cm**-1
  60:      1391.35 cm**-1
  61:      1405.13 cm**-1
  62:      1420.52 cm**-1
  63:      1436.65 cm**-1
  64:      1457.47 cm**-1
  65:      1476.83 cm**-1
  66:      1481.91 cm**-1
  67:      1486.07 cm**-1
  68:      1491.28 cm**-1
  69:      1494.70 cm**-1
  70:      1504.17 cm**-1
  71:      1518.85 cm**-1
  72:      1522.57 cm**-1
  73:      1549.94 cm**-1
  74:      1596.57 cm**-1
  75:      1655.51 cm**-1
  76:      1704.39 cm**-1
  77:      1782.79 cm**-1
  78:      3009.46 cm**-1
  79:      3048.15 cm**-1
  80:      3057.34 cm**-1
  81:      3074.24 cm**-1
  82:      3076.89 cm**-1
  83:      3084.55 cm**-1
  84:      3086.88 cm**-1
  85:      3103.33 cm**-1
  86:      3125.96 cm**-1
  87:      3144.17 cm**-1
  88:      3150.03 cm**-1
  89:      3165.81 cm**-1
  90:      3183.14 cm**-1
  91:      3186.37 cm**-1
  92:      3524.17 cm**-1
  93:      3535.97 cm**-1
  94:      3608.30 cm**-1
  95:      3686.88 cm**-1

IR SPECTRUM
-----------

 Mode   freq       eps      Int      T**2         TX        TY        TZ
       cm**-1   L/(mol*cm) km/mol    a.u.
----------------------------------------------------------------------------
  6:     21.47   0.000164    0.83  0.002381  (-0.019050 -0.031182  0.032333)
  7:     49.79   0.000111    0.56  0.000695  ( 0.018826 -0.014828  0.011006)
  8:     61.24   0.000085    0.43  0.000434  ( 0.006756  0.012177 -0.015495)
  9:     74.67   0.000544    2.75  0.002275  ( 0.018422  0.028529  0.033488)
 10:     84.64   0.003853   19.47  0.014206  ( 0.050698 -0.047409  0.096894)
 11:    112.68   0.000215    1.08  0.000594  (-0.007302  0.018674 -0.013858)
 12:    120.54   0.000850    4.30  0.002201  (-0.007154 -0.013320 -0.044413)
 13:    126.91   0.001291    6.52  0.003174  (-0.008913 -0.055622 -0.001093)
 14:    135.39   0.000572    2.89  0.001318  (-0.007050 -0.010932 -0.033887)
 15:    144.26   0.000050    0.25  0.000109  (-0.004485 -0.009345  0.001118)
 16:    161.55   0.001402    7.09  0.002709  (-0.014408 -0.012931 -0.048310)
 17:    174.03   0.000107    0.54  0.000192  ( 0.009774 -0.003074 -0.009320)
 18:    221.08   0.000488    2.47  0.000689  ( 0.008746  0.017281  0.017728)
 19:    262.55   0.007834   39.59  0.009312  (-0.065323  0.070955 -0.003177)
 20:    267.99   0.003732   18.86  0.004346  ( 0.035448 -0.000020  0.055581)
 21:    302.06   0.002954   14.93  0.003052  (-0.001484  0.025411  0.049027)
 22:    316.79   0.001587    8.02  0.001563  ( 0.007999  0.004790  0.038423)
 23:    348.10   0.004190   21.17  0.003756  (-0.023845 -0.013971 -0.054702)
 24:    383.84   0.002503   12.65  0.002035  ( 0.013331 -0.014249  0.040669)
 25:    390.98   0.002491   12.59  0.001988  ( 0.010434 -0.043336  0.001165)
 26:    419.05   0.003225   16.30  0.002402  (-0.012139 -0.004725  0.047246)
 27:    496.59   0.002754   13.92  0.001731  ( 0.041222 -0.001449  0.005416)
 28:    532.66   0.003130   15.82  0.001834  ( 0.022719 -0.027098 -0.024150)
 29:    608.71   0.001597    8.07  0.000819  (-0.011324  0.024561 -0.009334)
 30:    626.05   0.001604    8.10  0.000799  (-0.005205 -0.015343 -0.023169)
 31:    718.29   0.000858    4.34  0.000373  ( 0.009769 -0.016570 -0.001701)
 32:    747.04   0.001334    6.74  0.000557  (-0.009850 -0.004936 -0.020879)
 33:    750.78   0.001723    8.71  0.000716  (-0.020835  0.013997 -0.009276)
 34:    763.83   0.008888   44.92  0.003631  (-0.033716  0.007052 -0.049445)
 35:    798.08   0.001699    8.59  0.000664  (-0.010278  0.001360  0.023601)
 36:    853.80   0.025210  127.40  0.009214  (-0.049837  0.029630  0.076502)
 37:    862.66   0.000551    2.78  0.000199  ( 0.006712  0.010868  0.006008)
 38:    935.56   0.003315   16.75  0.001106  ( 0.021084 -0.004340 -0.025345)
 39:    944.85   0.000493    2.49  0.000163  (-0.011537  0.004614  0.002913)
 40:    993.26   0.000478    2.42  0.000150  ( 0.007755  0.003901 -0.008650)
 41:   1023.50   0.003462   17.50  0.001056  (-0.003189  0.030903  0.009516)
 42:   1038.65   0.000691    3.49  0.000208  ( 0.009731  0.009248 -0.005229)
 43:   1057.07   0.001601    8.09  0.000473  (-0.013399  0.013137 -0.010983)
 44:   1072.44   0.000441    2.23  0.000128  (-0.006530  0.002070  0.009023)
 45:   1076.14   0.000174    0.88  0.000051  (-0.006964 -0.001168  0.000838)
 46:   1105.57   0.001441    7.28  0.000407  (-0.012998  0.007754  0.013334)
 47:   1117.97   0.002090   10.56  0.000583  ( 0.021572  0.010655  0.002126)
 48:   1154.98   0.000998    5.04  0.000270  (-0.014193 -0.004823 -0.006708)
 49:   1160.60   0.000267    1.35  0.000072  ( 0.001400 -0.007214 -0.004219)
 50:   1184.93   0.003359   16.97  0.000885  ( 0.009106  0.028057  0.003800)
 51:   1212.13   0.003519   17.78  0.000906  (-0.006261 -0.029436  0.000412)
 52:   1237.65   0.002002   10.12  0.000505  (-0.006005 -0.021649 -0.000027)
 53:   1258.54   0.001791    9.05  0.000444  ( 0.014342 -0.011501 -0.010297)
 54:   1271.75   0.003378   17.07  0.000829  ( 0.010843  0.026381  0.003923)
 55:   1302.65   0.011005   55.62  0.002636  (-0.010427 -0.049102 -0.010804)
 56:   1326.35   0.000167    0.84  0.000039  ( 0.000361  0.005755 -0.002448)
 57:   1331.93   0.002976   15.04  0.000697  (-0.004515  0.025205  0.006448)
 58:   1347.68   0.003551   17.95  0.000822  (-0.004541  0.025675  0.011937)
 59:   1357.48   0.045087  227.85  0.010365  ( 0.004715  0.097989  0.027219)
 60:   1391.35   0.000231    1.17  0.000052  (-0.006199 -0.002763  0.002405)
 61:   1405.13   0.010422   52.67  0.002315  ( 0.014459 -0.042790 -0.016568)
 62:   1420.52   0.004605   23.27  0.001012  ( 0.023581 -0.019546 -0.008579)
 63:   1436.65   0.002751   13.90  0.000597  (-0.018852 -0.014470  0.005717)
 64:   1457.47   0.002847   14.39  0.000610  ( 0.009813 -0.021547 -0.007000)
 65:   1476.83   0.003603   18.21  0.000761  (-0.019679 -0.014055 -0.013288)
 66:   1481.91   0.005149   26.02  0.001084  ( 0.012090  0.023894  0.019160)
 67:   1486.07   0.001231    6.22  0.000259  (-0.010564 -0.011958  0.001989)
 68:   1491.28   0.002753   13.91  0.000576  (-0.010687 -0.021439 -0.001515)
 69:   1494.70   0.002875   14.53  0.000600  (-0.015244 -0.013969  0.013142)
 70:   1504.17   0.008562   43.27  0.001776  (-0.011386 -0.037175  0.016269)
 71:   1518.85   0.011280   57.00  0.002318  ( 0.002829  0.046994  0.010055)
 72:   1522.57   0.000657    3.32  0.000135  ( 0.008067 -0.003350  0.007646)
 73:   1549.94   0.135177  683.13  0.027216  ( 0.012393 -0.156518 -0.050647)
 74:   1596.57   0.003005   15.19  0.000587  (-0.020090  0.007778  0.011100)
 75:   1655.51   0.007570   38.26  0.001427  ( 0.024886  0.028267  0.002945)
 76:   1704.39   0.070357  355.56  0.012882  (-0.100405 -0.030456  0.043282)
 77:   1782.79   0.042419  214.37  0.007425  ( 0.060116  0.061564 -0.004601)
 78:   3009.46   0.009422   47.61  0.000977  (-0.009806  0.004919  0.029268)
 79:   3048.15   0.000573    2.89  0.000059  (-0.003149  0.003484  0.006049)
 80:   3057.34   0.006489   32.79  0.000662  ( 0.000381  0.015037 -0.020882)
 81:   3074.24   0.008577   43.34  0.000871  (-0.004122 -0.029205  0.000846)
 82:   3076.89   0.003585   18.11  0.000364  ( 0.003858 -0.005023 -0.017984)
 83:   3084.55   0.002297   11.61  0.000232  ( 0.001231 -0.010587  0.010899)
 84:   3086.88   0.000428    2.16  0.000043  ( 0.005452 -0.002324 -0.002851)
 85:   3103.33   0.003967   20.05  0.000399  ( 0.002399 -0.019759  0.001657)
 86:   3125.96   0.004068   20.56  0.000406  ( 0.001020 -0.016643 -0.011318)
 87:   3144.17   0.002466   12.46  0.000245  ( 0.005532  0.001907  0.014508)
 88:   3150.03   0.000778    3.93  0.000077  ( 0.000973 -0.008706 -0.000546)
 89:   3165.81   0.000541    2.74  0.000053  (-0.004157 -0.002291  0.005552)
 90:   3183.14   0.001598    8.08  0.000157  ( 0.008844 -0.006537 -0.005979)
 91:   3186.37   0.000830    4.20  0.000081  (-0.006642 -0.006090  0.000346)
 92:   3524.17   0.000075    0.38  0.000007  ( 0.001686  0.001819  0.000688)
 93:   3535.97   0.019189   96.97  0.001693  (-0.030317 -0.026600  0.008176)
 94:   3608.30   0.000708    3.58  0.000061  (-0.003786  0.004950 -0.004736)
 95:   3686.88   0.007816   39.50  0.000662  (-0.022645  0.005652  0.010809)

--------------------------
THERMOCHEMISTRY AT 298.15K
--------------------------

Temperature         ... 298.15 K
Pressure            ... 1.00 atm
Total Mass          ... 200.26 AMU

Throughout the following assumptions are being made:
  (1) The electronic state is orbitally nondegenerate
      but the spin degeneracy is treated
  (2) There are no thermally accessible electronically excited states
  (3) Hindered rotations indicated by low frequency modes are not
      treated as such but are treated as vibrations and this may
      cause some error
  (4) All equations used are the standard statistical mechanics
      equations for an ideal gas
  (5) All vibrations are strictly harmonic

freq.      21.47  E(vib)   ...       0.56
freq.      49.79  E(vib)   ...       0.52
freq.      61.24  E(vib)   ...       0.51
freq.      74.67  E(vib)   ...       0.49
freq.      84.64  E(vib)   ...       0.48
freq.     112.68  E(vib)   ...       0.45
freq.     120.54  E(vib)   ...       0.44
freq.     126.91  E(vib)   ...       0.43
freq.     135.39  E(vib)   ...       0.42
freq.     144.26  E(vib)   ...       0.41
freq.     161.55  E(vib)   ...       0.39
freq.     174.03  E(vib)   ...       0.38
freq.     221.08  E(vib)   ...       0.33
freq.     262.55  E(vib)   ...       0.29
freq.     267.99  E(vib)   ...       0.29
freq.     302.06  E(vib)   ...       0.26
freq.     316.79  E(vib)   ...       0.25
freq.     348.10  E(vib)   ...       0.23
freq.     383.84  E(vib)   ...       0.20
freq.     390.98  E(vib)   ...       0.20
freq.     419.05  E(vib)   ...       0.18
freq.     496.59  E(vib)   ...       0.14
freq.     532.66  E(vib)   ...       0.13
freq.     608.71  E(vib)   ...       0.10
freq.     626.05  E(vib)   ...       0.09
freq.     718.29  E(vib)   ...       0.07
freq.     747.04  E(vib)   ...       0.06
freq.     750.78  E(vib)   ...       0.06
freq.     763.83  E(vib)   ...       0.06
freq.     798.08  E(vib)   ...       0.05
freq.     853.80  E(vib)   ...       0.04
freq.     862.66  E(vib)   ...       0.04
freq.     935.56  E(vib)   ...       0.03
freq.     944.85  E(vib)   ...       0.03
freq.     993.26  E(vib)   ...       0.02
freq.    1023.50  E(vib)   ...       0.02
freq.    1038.65  E(vib)   ...       0.02
freq.    1057.07  E(vib)   ...       0.02
freq.    1072.44  E(vib)   ...       0.02
freq.    1076.14  E(vib)   ...       0.02
freq.    1105.57  E(vib)   ...       0.02
freq.    1117.97  E(vib)   ...       0.01
freq.    1154.98  E(vib)   ...       0.01
freq.    1160.60  E(vib)   ...       0.01
freq.    1184.93  E(vib)   ...       0.01
freq.    1212.13  E(vib)   ...       0.01
freq.    1237.65  E(vib)   ...       0.01
freq.    1258.54  E(vib)   ...       0.01
freq.    1271.75  E(vib)   ...       0.01
freq.    1302.65  E(vib)   ...       0.01
freq.    1326.35  E(vib)   ...       0.01
freq.    1331.93  E(vib)   ...       0.01
freq.    1347.68  E(vib)   ...       0.01
freq.    1357.48  E(vib)   ...       0.01
freq.    1391.35  E(vib)   ...       0.00
freq.    1405.13  E(vib)   ...       0.00
freq.    1420.52  E(vib)   ...       0.00
freq.    1436.65  E(vib)   ...       0.00
freq.    1457.47  E(vib)   ...       0.00
freq.    1476.83  E(vib)   ...       0.00
freq.    1481.91  E(vib)   ...       0.00
freq.    1486.07  E(vib)   ...       0.00
freq.    1491.28  E(vib)   ...       0.00
freq.    1494.70  E(vib)   ...       0.00
freq.    1504.17  E(vib)   ...       0.00
freq.    1518.85  E(vib)   ...       0.00
freq.    1522.57  E(vib)   ...       0.00
freq.    1549.94  E(vib)   ...       0.00
freq.    1596.57  E(vib)   ...       0.00
freq.    1655.51  E(vib)   ...       0.00
freq.    1704.39  E(vib)   ...       0.00
freq.    1782.79  E(vib)   ...       0.00
freq.    3009.46  E(vib)   ...       0.00
freq.    3048.15  E(vib)   ...       0.00
freq.    3057.34  E(vib)   ...       0.00
freq.    3074.24  E(vib)   ...       0.00
freq.    3076.89  E(vib)   ...       0.00
freq.    3084.55  E(vib)   ...       0.00
freq.    3086.88  E(vib)   ...       0.00
freq.    3103.33  E(vib)   ...       0.00
freq.    3125.96  E(vib)   ...       0.00
freq.    3144.17  E(vib)   ...       0.00
freq.    3150.03  E(vib)   ...       0.00
freq.    3165.81  E(vib)   ...       0.00
freq.    3183.14  E(vib)   ...       0.00
freq.    3186.37  E(vib)   ...       0.00
freq.    3524.17  E(vib)   ...       0.00
freq.    3535.97  E(vib)   ...       0.00
freq.    3608.30  E(vib)   ...       0.00
freq.    3686.88  E(vib)   ...       0.00

------------
INNER ENERGY
------------

The inner energy is: U= E(el) + E(ZPE) + E(vib) + E(rot) + E(trans)
    E(el)   - is the total energy from the electronic structure calculation
              = E(kin-el) + E(nuc-el) + E(el-el) + E(nuc-nuc)
    E(ZPE)  - the the zero temperature vibrational energy from the frequency calculation
    E(vib)  - the the finite temperature correction to E(ZPE) due to population
              of excited vibrational states
    E(rot)  - is the rotational thermal energy
    E(trans)- is the translational thermal energy

Summary of contributions to the inner energy U:
Electronic energy                ...   -668.46950569 Eh
Zero point energy                ...      0.27948129 Eh     175.38 kcal/mol
Thermal vibrational correction   ...      0.01420325 Eh       8.91 kcal/mol
Thermal rotational correction    ...      0.00141627 Eh       0.89 kcal/mol
Thermal translational correction ...      0.00141627 Eh       0.89 kcal/mol
-----------------------------------------------------------------------
Total thermal energy                   -668.17298861 Eh

Summary of corrections to the electronic energy:
(perhaps to be used in another calculation)
Total thermal correction                  0.01703579 Eh      10.69 kcal/mol
Non-thermal (ZPE) correction              0.27948129 Eh     175.38 kcal/mol
-----------------------------------------------------------------------
Total correction                          0.29651708 Eh     186.07 kcal/mol

--------
ENTHALPY
--------

The enthalpy is H = U + kB*T
                kB is Boltzmann's constant
Total free energy                 ...   -668.17298861 Eh
Thermal Enthalpy correction       ...      0.00094421 Eh       0.59 kcal/mol
-----------------------------------------------------------------------
Total Enthalpy                    ...   -668.17204440 Eh

Note: Only C1 symmetry has been detected, increase convergence thresholds
      if your molecule has a higher symmetry. Symmetry factor of 1.0 is
      used for the rotational entropy correction.

Note: Rotational entropy computed according to Herzberg
Infrared and Raman Spectra, Chapter V,1, Van Nostrand Reinhold, 1945
Point Group:  C1, Symmetry Number:   1
Rotational constants in cm-1:     0.022061     0.013094     0.008555

                             ****ORCA TERMINATED NORMALLY****
TOTAL RUN TIME: 0 days 0 hours 33 minutes 6 seconds 386 msec
