                         Program Version 5.0.4 -  RELEASE  -
|  1> ! B3LYP EPR-II OPT
|  2> %pal nprocs 16 end
|  3> *XYZFile 0 2 model.xyz
|  4>
|  5>                          ****END OF INPUT****
 Total Charge           Charge          ....    0
 Multiplicity           Mult            ....    2
 Number of Electrons    NEL             ....  109
FINAL SINGLE POINT ENERGY      -668.241866546286
FINAL SINGLE POINT ENERGY      -668.243328637310
FINAL SINGLE POINT ENERGY      -668.243434236768
FINAL SINGLE POINT ENERGY      -668.243467797200
FINAL SINGLE POINT ENERGY      -668.243484385159
FINAL SINGLE POINT ENERGY      -668.243491269829
FINAL SINGLE POINT ENERGY      -668.243502674783
FINAL SINGLE POINT ENERGY      -668.243520803510
FINAL SINGLE POINT ENERGY      -668.243561694619
FINAL SINGLE POINT ENERGY      -668.243610379341
FINAL SINGLE POINT ENERGY      -668.243840419100
FINAL SINGLE POINT ENERGY      -668.243897927474
FINAL SINGLE POINT ENERGY      -668.243943460618
FINAL SINGLE POINT ENERGY      -668.243983556149
FINAL SINGLE POINT ENERGY      -668.244004434419
FINAL SINGLE POINT ENERGY      -668.244012244181
FINAL SINGLE POINT ENERGY      -668.244019076215
FINAL SINGLE POINT ENERGY      -668.244019446895
FINAL SINGLE POINT ENERGY      -668.244019122544
                    ***********************HURRAY********************

CARTESIAN COORDINATES (ANGSTROEM)
---------------------------------
  N     -2.061554    0.694510    0.713634
  C     -1.348457   -0.266449    0.017317
  C     -2.018757   -1.578632    0.094575
  O     -3.107374   -1.699142    0.691081
  C     -0.055623    0.025537   -0.692095
  C      1.199870   -0.072670    0.215641
  C      2.493443    0.245074   -0.551831
  C      3.745564    0.174602    0.333207
  N      4.957184    0.461259   -0.458873
  H     -0.097612    1.034765   -1.107655
  H      0.052961   -0.663767   -1.538928
  H      1.263485   -1.079087    0.651885
  H      1.079423    0.631795    1.044896
  H      2.413630    1.253384   -0.981943
  H      2.622348   -0.448447   -1.392639
  H      3.843506   -0.840914    0.736940
  H      3.611258    0.851722    1.194334
  H      5.776761    0.399157    0.139872
  H      4.922886    1.425483   -0.781854
  H     -2.921880    0.300149    1.092508
  C     -1.774510    2.025500    0.960626
  N     -1.408227   -2.640135   -0.532963
  H     -0.462848   -2.521912   -0.859676
  O     -0.739289    2.579108    0.594153
  C     -2.858181    2.775914    1.726869
  H     -2.398445    3.264468    2.590040
  H     -3.258368    3.561672    1.078738
  H     -3.680383    2.140098    2.064759
  C     -1.934826   -3.994535   -0.423263
  H     -3.017955   -3.935714   -0.314739
  H     -1.690833   -4.557464   -1.328264
  H     -1.530930   -4.525251    0.448760

 Multiplicity           Mult            ....    2
 Number of Electrons    NEL             ....  109
 Basis Dimension        Dim             ....  364

ORBITAL ENERGIES
----------------
                 SPIN UP ORBITALS
  NO   OCC          E(Eh)            E(eV)
   0   1.0000     -19.118462      -520.2398
   1   1.0000     -19.108137      -519.9588
   2   1.0000     -14.380906      -391.3244
   3   1.0000     -14.361075      -390.7847
   4   1.0000     -14.306479      -389.2991
   5   1.0000     -10.302657      -280.3496
   6   1.0000     -10.292801      -280.0814
   7   1.0000     -10.247183      -278.8400
   8   1.0000     -10.216996      -278.0186
   9   1.0000     -10.204662      -277.6830
  10   1.0000     -10.198189      -277.5068
  11   1.0000     -10.194455      -277.4052
  12   1.0000     -10.186638      -277.1925
  13   1.0000     -10.179012      -276.9850
  14   1.0000      -1.043581       -28.3973
  15   1.0000      -1.029552       -28.0155
  16   1.0000      -0.943729       -25.6802
  17   1.0000      -0.919989       -25.0342
  18   1.0000      -0.874162       -23.7871
  19   1.0000      -0.805304       -21.9134
  20   1.0000      -0.764522       -20.8037
  21   1.0000      -0.732544       -19.9335
  22   1.0000      -0.708545       -19.2805
  23   1.0000      -0.674109       -18.3434
  24   1.0000      -0.627508       -17.0754
  25   1.0000      -0.595598       -16.2070
  26   1.0000      -0.581875       -15.8336
  27   1.0000      -0.561001       -15.2656
  28   1.0000      -0.549800       -14.9608
  29   1.0000      -0.485871       -13.2212
  30   1.0000      -0.481759       -13.1093
  31   1.0000      -0.470701       -12.8084
  32   1.0000      -0.463203       -12.6044
  33   1.0000      -0.456742       -12.4286
  34   1.0000      -0.452003       -12.2996
  35   1.0000      -0.448775       -12.2118
  36   1.0000      -0.442325       -12.0363
  37   1.0000      -0.421916       -11.4809
  38   1.0000      -0.413092       -11.2408
  39   1.0000      -0.405695       -11.0395
  40   1.0000      -0.404399       -11.0042
  41   1.0000      -0.399659       -10.8753
  42   1.0000      -0.391356       -10.6493
  43   1.0000      -0.378489       -10.2992
  44   1.0000      -0.375396       -10.2150
  45   1.0000      -0.357499        -9.7280
  46   1.0000      -0.341801        -9.3009
  47   1.0000      -0.337433        -9.1820
  48   1.0000      -0.327759        -8.9188
  49   1.0000      -0.314231        -8.5507
  50   1.0000      -0.269480        -7.3329
  51   1.0000      -0.261616        -7.1189
  52   1.0000      -0.260215        -7.0808
  53   1.0000      -0.236523        -6.4361
  54   1.0000      -0.177345        -4.8258
  55   0.0000       0.010246         0.2788
  56   0.0000       0.011056         0.3009
  57   0.0000       0.023189         0.6310
  58   0.0000       0.028318         0.7706
  59   0.0000       0.032309         0.8792

                 SPIN DOWN ORBITALS
  NO   OCC          E(Eh)            E(eV)
   0   1.0000     -19.115804      -520.1675
   1   1.0000     -19.105517      -519.8876
   2   1.0000     -14.379448      -391.2847
   3   1.0000     -14.359602      -390.7446
   4   1.0000     -14.306455      -389.2984
   5   1.0000     -10.302144      -280.3356
   6   1.0000     -10.293130      -280.0903
   7   1.0000     -10.237330      -278.5719
   8   1.0000     -10.217088      -278.0211
   9   1.0000     -10.204640      -277.6824
  10   1.0000     -10.198792      -277.5232
  11   1.0000     -10.194552      -277.4079
  12   1.0000     -10.185670      -277.1662
  13   1.0000     -10.178924      -276.9826
  14   1.0000      -1.038527       -28.2598
  15   1.0000      -1.025069       -27.8935
  16   1.0000      -0.936632       -25.4871
  17   1.0000      -0.916307       -24.9340
  18   1.0000      -0.874073       -23.7847
  19   1.0000      -0.799794       -21.7635
  20   1.0000      -0.759263       -20.6606
  21   1.0000      -0.730590       -19.8804
  22   1.0000      -0.707536       -19.2530
  23   1.0000      -0.667298       -18.1581
  24   1.0000      -0.625774       -17.0282
  25   1.0000      -0.593214       -16.1422
  26   1.0000      -0.581124       -15.8132
  27   1.0000      -0.557774       -15.1778
  28   1.0000      -0.545829       -14.8528
  29   1.0000      -0.485258       -13.2045
  30   1.0000      -0.480448       -13.0737
  31   1.0000      -0.468242       -12.7415
  32   1.0000      -0.454710       -12.3733
  33   1.0000      -0.454200       -12.3594
  34   1.0000      -0.447839       -12.1863
  35   1.0000      -0.444735       -12.1019
  36   1.0000      -0.441376       -12.0105
  37   1.0000      -0.418714       -11.3938
  38   1.0000      -0.408365       -11.1122
  39   1.0000      -0.403520       -10.9803
  40   1.0000      -0.400509       -10.8984
  41   1.0000      -0.395132       -10.7521
  42   1.0000      -0.389828       -10.6077
  43   1.0000      -0.375421       -10.2157
  44   1.0000      -0.368022       -10.0144
  45   1.0000      -0.355686        -9.6787
  46   1.0000      -0.339526        -9.2390
  47   1.0000      -0.333967        -9.0877
  48   1.0000      -0.327249        -8.9049
  49   1.0000      -0.296651        -8.0723
  50   1.0000      -0.262866        -7.1529
  51   1.0000      -0.258950        -7.0464
  52   1.0000      -0.249848        -6.7987
  53   1.0000      -0.236466        -6.4346
  54   0.0000      -0.085435        -2.3248
  55   0.0000       0.011417         0.3107
  56   0.0000       0.022925         0.6238
  57   0.0000       0.023574         0.6415
  58   0.0000       0.028790         0.7834

MULLIKEN ATOMIC CHARGES AND SPIN POPULATIONS
--------------------------------------------
   0 N :   -0.026007    0.058842
   1 C :    0.148351    0.648711
   2 C :    0.015376   -0.008761
   3 O :   -0.381813    0.097165
   4 C :   -0.338673   -0.039173
   5 C :   -0.268167    0.029295
   6 C :   -0.265908    0.004984
   7 C :   -0.304073    0.000675
   8 N :   -0.453666    0.000791
   9 H :    0.186958    0.010957
  10 H :    0.121013    0.005869
  11 H :    0.138409   -0.000789
  12 H :    0.177901   -0.001398
  13 H :    0.154833   -0.000118
  14 H :    0.154499   -0.000167
  15 H :    0.155306    0.000004
  16 H :    0.140398   -0.000054
  17 H :    0.208781    0.000233
  18 H :    0.210670   -0.000046
  19 H :    0.250566   -0.003725
  20 C :    0.104011    0.033722
  21 N :   -0.115235    0.060231
  22 H :    0.224359   -0.002298
  23 O :   -0.288932    0.096288
  24 C :   -0.543337   -0.003973
  25 H :    0.187243    0.004521
  26 H :    0.187965    0.004652
  27 H :    0.151586   -0.000101
  28 C :   -0.446890   -0.005821
  29 H :    0.198013    0.000553
  30 H :    0.149992    0.001917
  31 H :    0.166469    0.007011
Sum of atomic charges         :    0.0000000

LOEWDIN ATOMIC CHARGES AND SPIN POPULATIONS
-------------------------------------------
   0 N :    0.128338    0.073023
   1 C :   -0.042083    0.526196
   2 C :   -0.110702    0.034906
   3 O :   -0.227948    0.093668
   4 C :   -0.059312    0.007543
   5 C :   -0.070766    0.033837
   6 C :   -0.086037    0.003921
   7 C :   -0.061051    0.000944
   8 N :   -0.097115    0.000709
   9 H :    0.068074    0.007991
  10 H :    0.044106    0.004686
  11 H :    0.040789   -0.000119
  12 H :    0.053846    0.000018
  13 H :    0.046270    0.000029
  14 H :    0.046900    0.000014
  15 H :    0.037086    0.000028
  16 H :    0.025285   -0.000006
  17 H :    0.048788    0.000171
  18 H :    0.051797    0.000002
  19 H :    0.102875    0.002139
  20 C :   -0.099825    0.048210
  21 N :    0.032121    0.056281
  22 H :    0.073865    0.000858
  23 O :   -0.171543    0.091397
  24 C :   -0.039614   -0.000042
  25 H :    0.054937    0.003293
  26 H :    0.056069    0.003642
  27 H :    0.035086   -0.000168
  28 C :    0.006589    0.000042
  29 H :    0.051536    0.000517
  30 H :    0.030761    0.001485
  31 H :    0.030882    0.004787

  Mayer bond orders larger than 0.100000
B(  0-N ,  1-C ) :   1.2382 B(  0-N , 19-H ) :   0.8707 B(  0-N , 20-C ) :   1.1600
B(  1-C ,  2-C ) :   1.0727 B(  1-C ,  4-C ) :   0.9629 B(  2-C ,  3-O ) :   1.7391
B(  2-C , 21-N ) :   1.1672 B(  4-C ,  5-C ) :   0.9462 B(  4-C ,  9-H ) :   0.9612
B(  4-C , 10-H ) :   0.9879 B(  5-C ,  6-C ) :   0.9533 B(  5-C , 11-H ) :   0.9846
B(  5-C , 12-H ) :   0.9645 B(  6-C ,  7-C ) :   0.9566 B(  6-C , 13-H ) :   0.9779
B(  6-C , 14-H ) :   0.9723 B(  7-C ,  8-N ) :   1.0323 B(  7-C , 15-H ) :   0.9627
B(  7-C , 16-H ) :   0.9420 B(  8-N , 17-H ) :   0.9451 B(  8-N , 18-H ) :   0.9469
B( 20-C , 23-O ) :   1.8943 B( 20-C , 24-C ) :   0.8984 B( 21-N , 22-H ) :   0.9303
B( 21-N , 28-C ) :   0.9724 B( 24-C , 25-H ) :   0.9578 B( 24-C , 26-H ) :   0.9551
B( 24-C , 27-H ) :   0.9738 B( 28-C , 29-H ) :   0.9456 B( 28-C , 30-H ) :   0.9665
B( 28-C , 31-H ) :   0.9543

FINAL SINGLE POINT ENERGY      -668.244018232618

DIPOLE MOMENT
-------------
                                X             Y             Z
Electronic contribution:    -11.20614       1.54844       0.90276
Nuclear contribution   :     11.55190      -1.91581      -0.76443
                        -----------------------------------------
Total Dipole Moment    :      0.34576      -0.36737       0.13833
                        -----------------------------------------
Magnitude (a.u.)       :      0.52311
Magnitude (Debye)      :      1.32963

Rotational constants in cm-1:     0.021435     0.012700     0.008302
Rotational constants in MHz :   642.610945   380.744621   248.899591

                             ****ORCA TERMINATED NORMALLY****
TOTAL RUN TIME: 0 days 0 hours 29 minutes 50 seconds 592 msec
