                         Program Version 5.0.4 -  RELEASE  -
|  1> ! B3LYP EPR-II AUTOAUX
|  2> %pal nprocs 16 end
|  3> *XYZFile -1 2 opt.xyz
|  4> %EPRNMR
|  5>         GTENSOR   TRUE
|  6>         NUCLEI    = 1,4,6,8,9,11,12,13,15,16,26 {SHIFT, AISO, ADIP, AORB}
|  7>         ORI       GIAO
|  8> END
|  9>
| 10>                          ****END OF INPUT****

CARTESIAN COORDINATES (ANGSTROEM)
---------------------------------
  N     -3.944932   -0.034768    0.010049
  C     -2.473886    0.014889   -0.115211
  C     -1.944106   -0.121514    1.344296
  O     -2.705150   -0.538090    2.242460
  C     -1.973711    1.204095   -0.896213
  H     -1.846116    1.052385   -1.964993
  C     -1.653595    2.551071   -0.338296
  H     -2.128904    3.346212   -0.923126
  H     -1.997702    2.645529    0.700655
  C     -0.090998    2.883409   -0.337231
  O      0.665495    1.944273    0.087588
  O      0.239292    4.013126   -0.736229
  H     -4.238536   -0.148210    0.976551
  C     -4.759227   -0.463289   -0.989931
  N     -0.648509    0.176272    1.526309
  H     -0.130814    0.803852    0.831280
  O     -4.382849   -0.690434   -2.143646
  C     -6.233339   -0.630027   -0.601481
  H     -6.834001    0.023522   -1.240776
  H     -6.531023   -1.662633   -0.806311
  H     -6.436220   -0.393336    0.446701
  C     -0.072548    0.094647    2.861686
  H     -0.046206   -0.940675    3.220199
  H      0.945806    0.485780    2.811315
  H     -0.648378    0.681367    3.587994
  H     -2.158040   -0.896406   -0.643323

 Total Charge           Charge          ....   -1
 Multiplicity           Mult            ....    2
 Number of Electrons    NEL             ....  107
 Basis Dimension        Dim             ....  322

ORBITAL ENERGIES
----------------
                 SPIN UP ORBITALS
  NO   OCC          E(Eh)            E(eV)
   0   1.0000     -18.998718      -516.9814
   1   1.0000     -18.994255      -516.8600
   2   1.0000     -18.937694      -515.3208
   3   1.0000     -18.933087      -515.1955
   4   1.0000     -14.239377      -387.4732
   5   1.0000     -14.215187      -386.8149
   6   1.0000     -10.185561      -277.1632
   7   1.0000     -10.169938      -276.7381
   8   1.0000     -10.130933      -275.6767
   9   1.0000     -10.119170      -275.3566
  10   1.0000     -10.096689      -274.7449
  11   1.0000     -10.096680      -274.7446
  12   1.0000     -10.068946      -273.9899
  13   1.0000     -10.048948      -273.4458
  14   1.0000      -0.919613       -25.0239
  15   1.0000      -0.908586       -24.7239
  16   1.0000      -0.869243       -23.6533
  17   1.0000      -0.804748       -21.8983
  18   1.0000      -0.792345       -21.5608
  19   1.0000      -0.778827       -21.1930
  20   1.0000      -0.668445       -18.1893
  21   1.0000      -0.630535       -17.1577
  22   1.0000      -0.595836       -16.2135
  23   1.0000      -0.562637       -15.3101
  24   1.0000      -0.492409       -13.3991
  25   1.0000      -0.456861       -12.4318
  26   1.0000      -0.432145       -11.7593
  27   1.0000      -0.411839       -11.2067
  28   1.0000      -0.372708       -10.1419
  29   1.0000      -0.365800        -9.9539
  30   1.0000      -0.348059        -9.4712
  31   1.0000      -0.340640        -9.2693
  32   1.0000      -0.337166        -9.1748
  33   1.0000      -0.330392        -8.9904
  34   1.0000      -0.320319        -8.7163
  35   1.0000      -0.302195        -8.2231
  36   1.0000      -0.295471        -8.0402
  37   1.0000      -0.288947        -7.8626
  38   1.0000      -0.283225        -7.7070
  39   1.0000      -0.271714        -7.3937
  40   1.0000      -0.260773        -7.0960
  41   1.0000      -0.254946        -6.9374
  42   1.0000      -0.248669        -6.7666
  43   1.0000      -0.237438        -6.4610
  44   1.0000      -0.226112        -6.1528
  45   1.0000      -0.208082        -5.6622
  46   1.0000      -0.154030        -4.1914
  47   1.0000      -0.147289        -4.0079
  48   1.0000      -0.142262        -3.8711
  49   1.0000      -0.130587        -3.5535
  50   1.0000      -0.106106        -2.8873
  51   1.0000      -0.098554        -2.6818
  52   1.0000      -0.086158        -2.3445
  53   1.0000      -0.052407        -1.4261
  54   0.0000       0.104348         2.8395
  55   0.0000       0.121731         3.3125
  56   0.0000       0.127916         3.4808
  57   0.0000       0.138881         3.7792
  58   0.0000       0.154938         4.2161

                 SPIN DOWN ORBITALS
  NO   OCC          E(Eh)            E(eV)
   0   1.0000     -18.998652      -516.9796
   1   1.0000     -18.994098      -516.8557
   2   1.0000     -18.937251      -515.3088
   3   1.0000     -18.932511      -515.1798
   4   1.0000     -14.237847      -387.4315
   5   1.0000     -14.215087      -386.8122
   6   1.0000     -10.185559      -277.1631
   7   1.0000     -10.169636      -276.7299
   8   1.0000     -10.129590      -275.6402
   9   1.0000     -10.120043      -275.3804
  10   1.0000     -10.096686      -274.7448
  11   1.0000     -10.096595      -274.7423
  12   1.0000     -10.055560      -273.6257
  13   1.0000     -10.049751      -273.4676
  14   1.0000      -0.919157       -25.0115
  15   1.0000      -0.908273       -24.7154
  16   1.0000      -0.867749       -23.6127
  17   1.0000      -0.802318       -21.8322
  18   1.0000      -0.791468       -21.5369
  19   1.0000      -0.778019       -21.1710
  20   1.0000      -0.660572       -17.9751
  21   1.0000      -0.624416       -16.9912
  22   1.0000      -0.592150       -16.1132
  23   1.0000      -0.561462       -15.2782
  24   1.0000      -0.483560       -13.1583
  25   1.0000      -0.452826       -12.3220
  26   1.0000      -0.424552       -11.5526
  27   1.0000      -0.409139       -11.1332
  28   1.0000      -0.368809       -10.0358
  29   1.0000      -0.365173        -9.9369
  30   1.0000      -0.345044        -9.3891
  31   1.0000      -0.339102        -9.2274
  32   1.0000      -0.334135        -9.0923
  33   1.0000      -0.329370        -8.9626
  34   1.0000      -0.319095        -8.6830
  35   1.0000      -0.301665        -8.2087
  36   1.0000      -0.292906        -7.9704
  37   1.0000      -0.284993        -7.7551
  38   1.0000      -0.280893        -7.6435
  39   1.0000      -0.269789        -7.3413
  40   1.0000      -0.258597        -7.0368
  41   1.0000      -0.253554        -6.8995
  42   1.0000      -0.245798        -6.6885
  43   1.0000      -0.235895        -6.4190
  44   1.0000      -0.222766        -6.0618
  45   1.0000      -0.205730        -5.5982
  46   1.0000      -0.151501        -4.1226
  47   1.0000      -0.145168        -3.9502
  48   1.0000      -0.141440        -3.8488
  49   1.0000      -0.129831        -3.5329
  50   1.0000      -0.099089        -2.6963
  51   1.0000      -0.092900        -2.5279
  52   1.0000      -0.078449        -2.1347
  53   0.0000       0.071357         1.9417
  54   0.0000       0.105675         2.8756
  55   0.0000       0.122222         3.3258
  56   0.0000       0.128782         3.5043
  57   0.0000       0.139962         3.8086

MULLIKEN ATOMIC CHARGES AND SPIN POPULATIONS
--------------------------------------------
   0 N :   -0.096815    0.036460
   1 C :   -0.100469   -0.045489
   2 C :    0.030480    0.009294
   3 O :   -0.414610    0.003651
   4 C :   -0.105375    0.968456
   5 H :    0.106764   -0.049334
   6 C :   -0.361552   -0.055172
   7 H :    0.145867    0.027997
   8 H :    0.143118    0.003901
   9 C :    0.124901    0.042653
  10 O :   -0.420700    0.013923
  11 O :   -0.400391    0.021639
  12 H :    0.236727    0.002471
  13 C :    0.163871    0.005737
  14 N :   -0.057519    0.004281
  15 H :    0.272102    0.000306
  16 O :   -0.345581    0.001142
  17 C :   -0.572271    0.002058
  18 H :    0.175237    0.000730
  19 H :    0.171958   -0.000392
  20 H :    0.148281   -0.000105
  21 C :   -0.479937   -0.000345
  22 H :    0.152734    0.000341
  23 H :    0.159694    0.000063
  24 H :    0.158101    0.000005
  25 H :    0.165383    0.005730
Sum of atomic charges         :   -1.0000000

LOEWDIN ATOMIC CHARGES AND SPIN POPULATIONS
-------------------------------------------
   0 N :    0.059087    0.041984
   1 C :   -0.054925    0.018637
   2 C :   -0.106646    0.010124
   3 O :   -0.251612    0.005067
   4 C :   -0.037469    0.778870
   5 H :    0.039455    0.005974
   6 C :   -0.089246    0.010988
   7 H :    0.049827    0.022917
   8 H :    0.051753    0.002042
   9 C :   -0.179881    0.050131
  10 O :   -0.295157    0.012900
  11 O :   -0.271078    0.019104
  12 H :    0.085709    0.002290
  13 C :   -0.114428    0.004111
  14 N :    0.034853    0.003082
  15 H :    0.079536    0.001392
  16 O :   -0.212634    0.002010
  17 C :   -0.059161    0.003115
  18 H :    0.047174    0.000484
  19 H :    0.045901   -0.000095
  20 H :    0.030551    0.000052
  21 C :   -0.015779    0.000334
  22 H :    0.027385    0.000153
  23 H :    0.035093    0.000063
  24 H :    0.030687   -0.000036
  25 H :    0.071005    0.004307

  Mayer bond orders larger than 0.100000
B(  0-N ,  1-C ) :   0.9913 B(  0-N , 12-H ) :   0.8842 B(  0-N , 13-C ) :   1.2351
B(  1-C ,  2-C ) :   0.9016 B(  1-C ,  4-C ) :   1.0102 B(  1-C , 16-O ) :   0.1162
B(  1-C , 25-H ) :   0.9760 B(  2-C ,  3-O ) :   1.7151 B(  2-C , 14-N ) :   1.3001
B(  4-C ,  5-H ) :   0.9867 B(  4-C ,  6-C ) :   1.0268 B(  6-C ,  7-H ) :   0.9738
B(  6-C ,  8-H ) :   0.9768 B(  6-C ,  9-C ) :   0.8605 B(  9-C , 10-O ) :   1.4634
B(  9-C , 11-O ) :   1.7059 B( 10-O , 15-H ) :   0.2319 B( 13-C , 16-O ) :   1.8315
B( 13-C , 17-C ) :   0.8770 B( 14-N , 15-H ) :   0.7372 B( 14-N , 21-C ) :   0.9602
B( 17-C , 18-H ) :   0.9669 B( 17-C , 19-H ) :   0.9677 B( 17-C , 20-H ) :   0.9783
B( 21-C , 22-H ) :   0.9640 B( 21-C , 23-H ) :   0.9692 B( 21-C , 24-H ) :   0.9560

FINAL SINGLE POINT ENERGY      -722.308088641471

DIPOLE MOMENT
-------------
                                X             Y             Z
Electronic contribution:      3.60288       1.76537      -3.55282
Nuclear contribution   :     -6.06822      -3.68000       4.81449
                        -----------------------------------------
Total Dipole Moment    :     -2.46534      -1.91463       1.26166
                        -----------------------------------------
Magnitude (a.u.)       :      3.36682
Magnitude (Debye)      :      8.55779

Rotational constants in cm-1:     0.031287     0.013902     0.010439
Rotational constants in MHz :   937.966096   416.780890   312.940168

CHEMICAL SHIELDING SUMMARY (ppm)  --  Orbital contribution
----------------------------------------------------------

  Nucleus  Element    Isotropic     Anisotropy
  -------  -------  ------------   ------------
      0       N          110.961        106.781
      3       O          -14.422        551.463
      5       H           26.846          5.567
      7       H           29.122          6.120
      8       H           29.076          3.251
     10       O            5.590        255.216
     11       O          -32.982       -234.018
     12       H           24.767          8.944
     14       N          125.129         91.825
     15       H           16.795         22.210
     25       H           27.035          3.900

                             ****ORCA TERMINATED NORMALLY****
TOTAL RUN TIME: 0 days 0 hours 4 minutes 31 seconds 369 msec
