                         Program Version 5.0.4 -  RELEASE  -
|  1> ! M062X def2-TZVP OPT FREQ
|  2> %pal nprocs 16 end
|  3> *XYZFile -1 2 opt.xyz
|  4>
|  5>                          ****END OF INPUT****
 Total Charge           Charge          ....   -1
 Multiplicity           Mult            ....    2
 Number of Electrons    NEL             ....  107
FINAL SINGLE POINT ENERGY      -722.540268945982
FINAL SINGLE POINT ENERGY      -722.530509152580
FINAL SINGLE POINT ENERGY      -722.533786158374
FINAL SINGLE POINT ENERGY      -722.538093096897
FINAL SINGLE POINT ENERGY      -722.542623264301
FINAL SINGLE POINT ENERGY      -722.541018628224
FINAL SINGLE POINT ENERGY      -722.542611629151
FINAL SINGLE POINT ENERGY      -722.542156505672
FINAL SINGLE POINT ENERGY      -722.543696770463
FINAL SINGLE POINT ENERGY      -722.543747968474
FINAL SINGLE POINT ENERGY      -722.543781718576
FINAL SINGLE POINT ENERGY      -722.543802185471
FINAL SINGLE POINT ENERGY      -722.543808786385
FINAL SINGLE POINT ENERGY      -722.543813239964
FINAL SINGLE POINT ENERGY      -722.543819312596
FINAL SINGLE POINT ENERGY      -722.543819030881
FINAL SINGLE POINT ENERGY      -722.543818376600
                    ***********************HURRAY********************

CARTESIAN COORDINATES (ANGSTROEM)
---------------------------------
  N     -3.888842   -0.124648    0.060711
  C     -2.432110   -0.111451   -0.077981
  C     -1.880839   -0.202105    1.360781
  O     -2.587845   -0.657710    2.262166
  C     -1.925197    1.039585   -0.882925
  H     -1.709910    0.850865   -1.924636
  C     -1.754296    2.415268   -0.357793
  H     -2.294718    3.146165   -0.962396
  H     -2.131864    2.487709    0.667785
  C     -0.252674    2.883302   -0.333729
  O      0.569423    2.031888    0.116056
  O     -0.019974    4.021652   -0.733456
  H     -4.212925   -0.226523    1.012892
  C     -4.707950   -0.374090   -0.977052
  N     -0.623640    0.192978    1.523126
  H     -0.141978    0.847524    0.822912
  O     -4.323438   -0.520500   -2.125108
  C     -6.184885   -0.449058   -0.636127
  H     -6.704909    0.322460   -1.203190
  H     -6.565219   -1.416322   -0.962565
  H     -6.387394   -0.314439    0.425136
  C     -0.047072    0.155095    2.847183
  H      0.021714   -0.870166    3.216223
  H      0.947556    0.592742    2.790119
  H     -0.651187    0.721785    3.560638
  H     -2.138027   -1.040957   -0.578452

 Multiplicity           Mult            ....    2
 Number of Electrons    NEL             ....  107
 Basis Dimension        Dim             ....  506

ORBITAL ENERGIES
----------------
                 SPIN UP ORBITALS
  NO   OCC          E(Eh)            E(eV)
   0   1.0000     -19.482332      -530.1412
   1   1.0000     -19.475163      -529.9461
   2   1.0000     -19.419182      -528.4228
   3   1.0000     -19.410448      -528.1851
   4   1.0000     -14.658443      -398.8765
   5   1.0000     -14.627382      -398.0313
   6   1.0000     -10.535496      -286.6854
   7   1.0000     -10.517411      -286.1933
   8   1.0000     -10.475867      -285.0628
   9   1.0000     -10.469808      -284.8980
  10   1.0000     -10.448175      -284.3093
  11   1.0000     -10.446501      -284.2637
  12   1.0000     -10.421037      -283.5708
  13   1.0000     -10.395978      -282.8890
  14   1.0000      -1.054908       -28.7055
  15   1.0000      -1.041250       -28.3338
  16   1.0000      -1.003281       -27.3007
  17   1.0000      -0.924438       -25.1552
  18   1.0000      -0.915073       -24.9004
  19   1.0000      -0.896021       -24.3820
  20   1.0000      -0.777888       -21.1674
  21   1.0000      -0.734014       -19.9735
  22   1.0000      -0.695073       -18.9139
  23   1.0000      -0.657278       -17.8854
  24   1.0000      -0.586273       -15.9533
  25   1.0000      -0.544325       -14.8118
  26   1.0000      -0.520375       -14.1601
  27   1.0000      -0.498448       -13.5634
  28   1.0000      -0.463436       -12.6107
  29   1.0000      -0.448954       -12.2167
  30   1.0000      -0.434102       -11.8125
  31   1.0000      -0.423810       -11.5325
  32   1.0000      -0.420070       -11.4307
  33   1.0000      -0.407930       -11.1004
  34   1.0000      -0.398766       -10.8510
  35   1.0000      -0.380598       -10.3566
  36   1.0000      -0.371781       -10.1167
  37   1.0000      -0.368771       -10.0348
  38   1.0000      -0.361583        -9.8392
  39   1.0000      -0.345554        -9.4030
  40   1.0000      -0.336936        -9.1685
  41   1.0000      -0.332918        -9.0592
  42   1.0000      -0.327703        -8.9172
  43   1.0000      -0.313607        -8.5337
  44   1.0000      -0.299309        -8.1446
  45   1.0000      -0.282357        -7.6833
  46   1.0000      -0.232295        -6.3211
  47   1.0000      -0.223913        -6.0930
  48   1.0000      -0.215137        -5.8542
  49   1.0000      -0.197084        -5.3629
  50   1.0000      -0.176456        -4.8016
  51   1.0000      -0.171831        -4.6758
  52   1.0000      -0.164196        -4.4680
  53   1.0000      -0.114246        -3.1088
  54   0.0000       0.157587         4.2882
  55   0.0000       0.164728         4.4825
  56   0.0000       0.179740         4.8910
  57   0.0000       0.189078         5.1451
  58   0.0000       0.207200         5.6382

                 SPIN DOWN ORBITALS
  NO   OCC          E(Eh)            E(eV)
   0   1.0000     -19.482229      -530.1384
   1   1.0000     -19.475034      -529.9426
   2   1.0000     -19.418944      -528.4163
   3   1.0000     -19.410264      -528.1801
   4   1.0000     -14.657363      -398.8471
   5   1.0000     -14.627313      -398.0294
   6   1.0000     -10.535507      -286.6857
   7   1.0000     -10.517087      -286.1845
   8   1.0000     -10.475009      -285.0395
   9   1.0000     -10.470537      -284.9178
  10   1.0000     -10.448114      -284.3076
  11   1.0000     -10.446496      -284.2636
  12   1.0000     -10.414310      -283.3878
  13   1.0000     -10.396675      -282.9079
  14   1.0000      -1.054393       -28.6915
  15   1.0000      -1.040788       -28.3213
  16   1.0000      -1.002069       -27.2677
  17   1.0000      -0.921701       -25.0808
  18   1.0000      -0.914227       -24.8774
  19   1.0000      -0.895531       -24.3686
  20   1.0000      -0.767901       -20.8956
  21   1.0000      -0.726677       -19.7739
  22   1.0000      -0.690882       -18.7998
  23   1.0000      -0.655778       -17.8446
  24   1.0000      -0.575679       -15.6650
  25   1.0000      -0.539432       -14.6787
  26   1.0000      -0.511543       -13.9198
  27   1.0000      -0.494251       -13.4492
  28   1.0000      -0.457759       -12.4563
  29   1.0000      -0.447791       -12.1850
  30   1.0000      -0.430265       -11.7081
  31   1.0000      -0.421589       -11.4720
  32   1.0000      -0.417552       -11.3622
  33   1.0000      -0.406027       -11.0486
  34   1.0000      -0.396634       -10.7930
  35   1.0000      -0.379836       -10.3359
  36   1.0000      -0.369218       -10.0469
  37   1.0000      -0.363877        -9.9016
  38   1.0000      -0.356466        -9.6999
  39   1.0000      -0.343914        -9.3584
  40   1.0000      -0.336260        -9.1501
  41   1.0000      -0.329993        -8.9796
  42   1.0000      -0.324604        -8.8329
  43   1.0000      -0.312370        -8.5000
  44   1.0000      -0.294679        -8.0186
  45   1.0000      -0.279220        -7.5980
  46   1.0000      -0.228106        -6.2071
  47   1.0000      -0.221307        -6.0221
  48   1.0000      -0.213058        -5.7976
  49   1.0000      -0.195899        -5.3307
  50   1.0000      -0.171138        -4.6569
  51   1.0000      -0.168082        -4.5737
  52   1.0000      -0.155431        -4.2295
  53   0.0000       0.117510         3.1976
  54   0.0000       0.159888         4.3508
  55   0.0000       0.165145         4.4938
  56   0.0000       0.180744         4.9183
  57   0.0000       0.189415         5.1542

MULLIKEN ATOMIC CHARGES AND SPIN POPULATIONS
--------------------------------------------
   0 N :   -0.344007    0.034454
   1 C :   -0.019474   -0.057707
   2 C :    0.290379    0.004425
   3 O :   -0.486820    0.003926
   4 C :   -0.160436    1.070699
   5 H :    0.148962   -0.046354
   6 C :   -0.394047   -0.102637
   7 H :    0.116439    0.030705
   8 H :    0.138775    0.002110
   9 C :    0.355971    0.037872
  10 O :   -0.552477    0.010149
  11 O :   -0.472135    0.008408
  12 H :    0.250108    0.002745
  13 C :    0.378804   -0.007801
  14 N :   -0.347209    0.010992
  15 H :    0.342723   -0.005564
  16 O :   -0.425651   -0.000789
  17 C :   -0.462574    0.001487
  18 H :    0.144573    0.001323
  19 H :    0.140059   -0.000095
  20 H :    0.119762    0.000202
  21 C :   -0.308170    0.000410
  22 H :    0.123330    0.000259
  23 H :    0.146912    0.000053
  24 H :    0.127876   -0.000006
  25 H :    0.148327    0.000736
Sum of atomic charges         :   -1.0000000

LOEWDIN ATOMIC CHARGES AND SPIN POPULATIONS
-------------------------------------------
   0 N :    0.143920    0.032869
   1 C :   -0.255382    0.068481
   2 C :   -0.455765    0.011743
   3 O :   -0.009106    0.004151
   4 C :   -0.101223    0.733678
   5 H :    0.130087   -0.002364
   6 C :   -0.271462    0.055461
   7 H :    0.140887    0.020264
   8 H :    0.142814    0.000325
   9 C :   -0.645208    0.036135
  10 O :   -0.084954    0.010741
  11 O :   -0.039396    0.007678
  12 H :    0.189646    0.002034
  13 C :   -0.494191    0.004733
  14 N :    0.101948    0.005021
  15 H :    0.188765    0.001657
  16 O :    0.037792    0.002524
  17 C :   -0.275341    0.002187
  18 H :    0.131707    0.000604
  19 H :    0.129184   -0.000000
  20 H :    0.117079    0.000189
  21 C :   -0.323367    0.000479
  22 H :    0.109333    0.000147
  23 H :    0.117966    0.000096
  24 H :    0.109806    0.000004
  25 H :    0.164460    0.001165

  Mayer bond orders larger than 0.100000
B(  0-N ,  1-C ) :   0.8580 B(  0-N , 12-H ) :   0.8763 B(  0-N , 13-C ) :   1.2505
B(  1-C ,  2-C ) :   0.9797 B(  1-C ,  4-C ) :   1.0105 B(  1-C , 25-H ) :   0.9622
B(  2-C ,  3-O ) :   1.8375 B(  2-C , 14-N ) :   1.3515 B(  4-C ,  5-H ) :   0.9665
B(  4-C ,  6-C ) :   0.9017 B(  6-C ,  7-H ) :   0.9495 B(  6-C ,  8-H ) :   0.9809
B(  6-C ,  9-C ) :   0.9215 B(  9-C , 10-O ) :   1.5725 B(  9-C , 11-O ) :   1.9391
B( 10-O , 15-H ) :   0.2231 B( 13-C , 16-O ) :   1.9571 B( 13-C , 17-C ) :   0.9038
B( 14-N , 15-H ) :   0.7134 B( 14-N , 21-C ) :   0.9594 B( 17-C , 18-H ) :   0.9658
B( 17-C , 19-H ) :   0.9696 B( 17-C , 20-H ) :   0.9818 B( 21-C , 22-H ) :   0.9732
B( 21-C , 23-H ) :   0.9703 B( 21-C , 24-H ) :   0.9720

FINAL SINGLE POINT ENERGY      -722.543819331978

DIPOLE MOMENT
-------------
                                X             Y             Z
Electronic contribution:      3.40514       1.48515      -3.47645
Nuclear contribution   :     -5.91240      -3.54155       4.58917
                        -----------------------------------------
Total Dipole Moment    :     -2.50726      -2.05639       1.11272
                        -----------------------------------------
Magnitude (a.u.)       :      3.42830
Magnitude (Debye)      :      8.71406

VIBRATIONAL FREQUENCIES
-----------------------

Scaling factor for frequencies =  1.000000000  (already applied!)

   0:         0.00 cm**-1
   1:         0.00 cm**-1
   2:         0.00 cm**-1
   3:         0.00 cm**-1
   4:         0.00 cm**-1
   5:         0.00 cm**-1
   6:       -40.74 cm**-1 ***imaginary mode***
   7:        43.96 cm**-1
   8:        52.89 cm**-1
   9:        73.89 cm**-1
  10:        85.07 cm**-1
  11:       104.46 cm**-1
  12:       113.37 cm**-1
  13:       161.12 cm**-1
  14:       174.00 cm**-1
  15:       177.75 cm**-1
  16:       202.83 cm**-1
  17:       221.40 cm**-1
  18:       244.28 cm**-1
  19:       283.76 cm**-1
  20:       306.05 cm**-1
  21:       376.47 cm**-1
  22:       405.37 cm**-1
  23:       477.06 cm**-1
  24:       527.15 cm**-1
  25:       544.26 cm**-1
  26:       571.48 cm**-1
  27:       583.68 cm**-1
  28:       630.77 cm**-1
  29:       660.88 cm**-1
  30:       704.53 cm**-1
  31:       750.31 cm**-1
  32:       798.84 cm**-1
  33:       876.63 cm**-1
  34:       883.96 cm**-1
  35:       919.82 cm**-1
  36:       972.23 cm**-1
  37:      1006.89 cm**-1
  38:      1036.40 cm**-1
  39:      1056.33 cm**-1
  40:      1058.83 cm**-1
  41:      1087.86 cm**-1
  42:      1131.53 cm**-1
  43:      1150.38 cm**-1
  44:      1162.54 cm**-1
  45:      1193.27 cm**-1
  46:      1206.91 cm**-1
  47:      1227.57 cm**-1
  48:      1260.12 cm**-1
  49:      1322.68 cm**-1
  50:      1344.52 cm**-1
  51:      1363.21 cm**-1
  52:      1390.36 cm**-1
  53:      1397.40 cm**-1
  54:      1425.94 cm**-1
  55:      1455.24 cm**-1
  56:      1469.46 cm**-1
  57:      1474.14 cm**-1
  58:      1483.87 cm**-1
  59:      1489.70 cm**-1
  60:      1507.46 cm**-1
  61:      1537.61 cm**-1
  62:      1673.46 cm**-1
  63:      1724.03 cm**-1
  64:      1745.41 cm**-1
  65:      1772.80 cm**-1
  66:      2476.00 cm**-1
  67:      3052.79 cm**-1
  68:      3054.79 cm**-1
  69:      3055.73 cm**-1
  70:      3083.11 cm**-1
  71:      3110.91 cm**-1
  72:      3111.91 cm**-1
  73:      3164.16 cm**-1
  74:      3169.04 cm**-1
  75:      3173.68 cm**-1
  76:      3225.45 cm**-1
  77:      3592.01 cm**-1

IR SPECTRUM
-----------

 Mode   freq       eps      Int      T**2         TX        TY        TZ
       cm**-1   L/(mol*cm) km/mol    a.u.
----------------------------------------------------------------------------
  7:     43.96   0.000162    0.82  0.001152  ( 0.014853 -0.011000  0.028473)
  8:     52.89   0.000434    2.20  0.002563  ( 0.017879 -0.020771 -0.042571)
  9:     73.89   0.000281    1.42  0.001186  ( 0.003923 -0.027840  0.019884)
 10:     85.07   0.000167    0.84  0.000612  ( 0.016974 -0.017910 -0.001709)
 11:    104.46   0.002317   11.71  0.006923  (-0.014100  0.080270  0.016754)
 12:    113.37   0.000334    1.69  0.000920  ( 0.029871  0.004827 -0.002191)
 13:    161.12   0.002958   14.95  0.005729  (-0.038535  0.018964 -0.062326)
 14:    174.00   0.000366    1.85  0.000657  (-0.017222  0.001242 -0.018939)
 15:    177.75   0.002822   14.26  0.004954  (-0.018385 -0.048095  0.047988)
 16:    202.83   0.004021   20.32  0.006186  (-0.008932 -0.069859  0.035017)
 17:    221.40   0.006483   32.76  0.009138  ( 0.072757  0.061847 -0.004337)
 18:    244.28   0.004766   24.08  0.006088  ( 0.033933  0.057928 -0.039761)
 19:    283.76   0.001816    9.18  0.001997  (-0.002287 -0.023733  0.037796)
 20:    306.05   0.001209    6.11  0.001232  ( 0.010838 -0.029355  0.015911)
 21:    376.47   0.005732   28.97  0.004752  ( 0.045032 -0.025392  0.045596)
 22:    405.37   0.000630    3.18  0.000485  (-0.002293 -0.012279  0.018142)
 23:    477.06   0.001628    8.23  0.001065  (-0.019384 -0.026236 -0.000815)
 24:    527.15   0.002890   14.61  0.001711  (-0.041243  0.003030  0.000976)
 25:    544.26   0.001753    8.86  0.001005  ( 0.013975 -0.020076 -0.020176)
 26:    571.48   0.007109   35.92  0.003882  (-0.021824  0.057854 -0.007641)
 27:    583.68   0.010880   54.98  0.005817  (-0.026405 -0.069895 -0.015309)
 28:    630.77   0.003468   17.53  0.001716  (-0.030725  0.007891  0.026640)
 29:    660.88   0.000765    3.87  0.000361  ( 0.002313 -0.016064 -0.009897)
 30:    704.53   0.000469    2.37  0.000208  ( 0.009437  0.000898 -0.010855)
 31:    750.31   0.004734   23.93  0.001969  (-0.037716 -0.019661 -0.012650)
 32:    798.84   0.003681   18.60  0.001438  (-0.018557 -0.030317  0.013207)
 33:    876.63   0.004924   24.88  0.001753  ( 0.039771 -0.013073  0.000247)
 34:    883.96   0.009954   50.30  0.003514  ( 0.034314  0.047756 -0.007484)
 35:    919.82   0.011972   60.50  0.004062  ( 0.041004  0.047014 -0.013039)
 36:    972.23   0.003146   15.90  0.001010  (-0.031145  0.002857  0.005636)
 37:   1006.89   0.001707    8.62  0.000529  ( 0.016464  0.012243  0.010390)
 38:   1036.40   0.002424   12.25  0.000730  (-0.016911 -0.019530 -0.007903)
 39:   1056.33   0.013262   67.02  0.003918  (-0.021097  0.052700 -0.026372)
 40:   1058.83   0.017560   88.74  0.005175  ( 0.016537 -0.066879  0.020713)
 41:   1087.86   0.004505   22.77  0.001292  ( 0.007792  0.034404 -0.006926)
 42:   1131.53   0.000439    2.22  0.000121  (-0.009517 -0.005378 -0.001264)
 43:   1150.38   0.001583    8.00  0.000430  (-0.014549 -0.011809  0.008854)
 44:   1162.54   0.001207    6.10  0.000324  (-0.013880  0.009605 -0.006262)
 45:   1193.27   0.003076   15.54  0.000804  (-0.026216 -0.005810  0.009131)
 46:   1206.91   0.002443   12.35  0.000632  ( 0.003871  0.022481 -0.010548)
 47:   1227.57   0.005923   29.93  0.001506  (-0.036629 -0.005460 -0.011581)
 48:   1260.12   0.000930    4.70  0.000230  ( 0.013312  0.006520  0.003252)
 49:   1322.68   0.001721    8.70  0.000406  ( 0.013273  0.001968 -0.015037)
 50:   1344.52   0.030073  151.98  0.006980  (-0.074327 -0.011995 -0.036216)
 51:   1363.21   0.012912   65.25  0.002956  ( 0.048453 -0.015662  0.019049)
 52:   1390.36   0.006845   34.59  0.001536  (-0.007726  0.010320 -0.037016)
 53:   1397.40   0.016166   81.70  0.003610  (-0.045958  0.010418 -0.037276)
 54:   1425.94   0.006193   31.30  0.001355  ( 0.021152  0.017805  0.024308)
 55:   1455.24   0.005703   28.82  0.001223  ( 0.004255  0.005877 -0.034210)
 56:   1469.46   0.001553    7.85  0.000330  ( 0.009339 -0.011393 -0.010617)
 57:   1474.14   0.001289    6.51  0.000273  ( 0.006914 -0.013682  0.006147)
 58:   1483.87   0.011210   56.65  0.002358  (-0.032220 -0.011094 -0.034589)
 59:   1489.70   0.001800    9.10  0.000377  (-0.013922  0.013337  0.002316)
 60:   1507.46   0.001085    5.48  0.000225  ( 0.002931  0.012151 -0.008271)
 61:   1537.61   0.094441  477.26  0.019167  ( 0.125998  0.032884  0.047014)
 62:   1673.46   0.074418  376.08  0.013877  ( 0.090695  0.075111  0.003187)
 63:   1724.03   0.155553  786.10  0.028156  (-0.067287 -0.125221  0.089154)
 64:   1745.41   0.076088  384.52  0.013604  (-0.047673  0.102646 -0.028195)
 65:   1772.80   0.064687  326.90  0.011387  (-0.011910 -0.013621 -0.105163)
 66:   2476.00   0.328375  1659.47  0.041387  ( 0.085737  0.142921 -0.116661)
 67:   3052.79   0.004888   24.70  0.000500  (-0.013749  0.014646 -0.009805)
 68:   3054.79   0.008912   45.04  0.000910  (-0.005712 -0.010501 -0.027704)
 69:   3055.73   0.002785   14.07  0.000284  ( 0.013709 -0.004604  0.008673)
 70:   3083.11   0.001954    9.87  0.000198  ( 0.013474  0.002140 -0.003410)
 71:   3110.91   0.002943   14.87  0.000295  (-0.002317  0.010023 -0.013763)
 72:   3111.91   0.006210   31.38  0.000623  ( 0.012064 -0.021842 -0.000290)
 73:   3164.16   0.001145    5.79  0.000113  ( 0.000244 -0.010607  0.000638)
 74:   3169.04   0.001848    9.34  0.000182  ( 0.011400  0.006512 -0.003109)
 75:   3173.68   0.002607   13.17  0.000256  (-0.000024  0.002801  0.015762)
 76:   3225.45   0.001672    8.45  0.000162  ( 0.001551 -0.002277 -0.012416)
 77:   3592.01   0.024303  122.82  0.002111  (-0.013215  0.001186 -0.043992)

--------------------------
THERMOCHEMISTRY AT 298.15K
--------------------------

Temperature         ... 298.15 K
Pressure            ... 1.00 atm
Total Mass          ... 200.19 AMU

Throughout the following assumptions are being made:
  (1) The electronic state is orbitally nondegenerate
      but the spin degeneracy is treated
  (2) There are no thermally accessible electronically excited states
  (3) Hindered rotations indicated by low frequency modes are not
      treated as such but are treated as vibrations and this may
      cause some error
  (4) All equations used are the standard statistical mechanics
      equations for an ideal gas
  (5) All vibrations are strictly harmonic

freq.      43.96  E(vib)   ...       0.53
freq.      52.89  E(vib)   ...       0.52
freq.      73.89  E(vib)   ...       0.49
freq.      85.07  E(vib)   ...       0.48
freq.     104.46  E(vib)   ...       0.46
freq.     113.37  E(vib)   ...       0.45
freq.     161.12  E(vib)   ...       0.39
freq.     174.00  E(vib)   ...       0.38
freq.     177.75  E(vib)   ...       0.37
freq.     202.83  E(vib)   ...       0.35
freq.     221.40  E(vib)   ...       0.33
freq.     244.28  E(vib)   ...       0.31
freq.     283.76  E(vib)   ...       0.28
freq.     306.05  E(vib)   ...       0.26
freq.     376.47  E(vib)   ...       0.21
freq.     405.37  E(vib)   ...       0.19
freq.     477.06  E(vib)   ...       0.15
freq.     527.15  E(vib)   ...       0.13
freq.     544.26  E(vib)   ...       0.12
freq.     571.48  E(vib)   ...       0.11
freq.     583.68  E(vib)   ...       0.11
freq.     630.77  E(vib)   ...       0.09
freq.     660.88  E(vib)   ...       0.08
freq.     704.53  E(vib)   ...       0.07
freq.     750.31  E(vib)   ...       0.06
freq.     798.84  E(vib)   ...       0.05
freq.     876.63  E(vib)   ...       0.04
freq.     883.96  E(vib)   ...       0.04
freq.     919.82  E(vib)   ...       0.03
freq.     972.23  E(vib)   ...       0.03
freq.    1006.89  E(vib)   ...       0.02
freq.    1036.40  E(vib)   ...       0.02
freq.    1056.33  E(vib)   ...       0.02
freq.    1058.83  E(vib)   ...       0.02
freq.    1087.86  E(vib)   ...       0.02
freq.    1131.53  E(vib)   ...       0.01
freq.    1150.38  E(vib)   ...       0.01
freq.    1162.54  E(vib)   ...       0.01
freq.    1193.27  E(vib)   ...       0.01
freq.    1206.91  E(vib)   ...       0.01
freq.    1227.57  E(vib)   ...       0.01
freq.    1260.12  E(vib)   ...       0.01
freq.    1322.68  E(vib)   ...       0.01
freq.    1344.52  E(vib)   ...       0.01
freq.    1363.21  E(vib)   ...       0.01
freq.    1390.36  E(vib)   ...       0.00
freq.    1397.40  E(vib)   ...       0.00
freq.    1425.94  E(vib)   ...       0.00
freq.    1455.24  E(vib)   ...       0.00
freq.    1469.46  E(vib)   ...       0.00
freq.    1474.14  E(vib)   ...       0.00
freq.    1483.87  E(vib)   ...       0.00
freq.    1489.70  E(vib)   ...       0.00
freq.    1507.46  E(vib)   ...       0.00
freq.    1537.61  E(vib)   ...       0.00
freq.    1673.46  E(vib)   ...       0.00
freq.    1724.03  E(vib)   ...       0.00
freq.    1745.41  E(vib)   ...       0.00
freq.    1772.80  E(vib)   ...       0.00
freq.    2476.00  E(vib)   ...       0.00
freq.    3052.79  E(vib)   ...       0.00
freq.    3054.79  E(vib)   ...       0.00
freq.    3055.73  E(vib)   ...       0.00
freq.    3083.11  E(vib)   ...       0.00
freq.    3110.91  E(vib)   ...       0.00
freq.    3111.91  E(vib)   ...       0.00
freq.    3164.16  E(vib)   ...       0.00
freq.    3169.04  E(vib)   ...       0.00
freq.    3173.68  E(vib)   ...       0.00
freq.    3225.45  E(vib)   ...       0.00
freq.    3592.01  E(vib)   ...       0.00

------------
INNER ENERGY
------------

The inner energy is: U= E(el) + E(ZPE) + E(vib) + E(rot) + E(trans)
    E(el)   - is the total energy from the electronic structure calculation
              = E(kin-el) + E(nuc-el) + E(el-el) + E(nuc-nuc)
    E(ZPE)  - the the zero temperature vibrational energy from the frequency calculation
    E(vib)  - the the finite temperature correction to E(ZPE) due to population
              of excited vibrational states
    E(rot)  - is the rotational thermal energy
    E(trans)- is the translational thermal energy

Summary of contributions to the inner energy U:
Electronic energy                ...   -722.54381933 Eh
Zero point energy                ...      0.20356286 Eh     127.74 kcal/mol
Thermal vibrational correction   ...      0.01167474 Eh       7.33 kcal/mol
Thermal rotational correction    ...      0.00141627 Eh       0.89 kcal/mol
Thermal translational correction ...      0.00141627 Eh       0.89 kcal/mol
-----------------------------------------------------------------------
Total thermal energy                   -722.32574920 Eh

Summary of corrections to the electronic energy:
(perhaps to be used in another calculation)
Total thermal correction                  0.01450728 Eh       9.10 kcal/mol
Non-thermal (ZPE) correction              0.20356286 Eh     127.74 kcal/mol
-----------------------------------------------------------------------
Total correction                          0.21807014 Eh     136.84 kcal/mol

--------
ENTHALPY
--------

The enthalpy is H = U + kB*T
                kB is Boltzmann's constant
Total free energy                 ...   -722.32574920 Eh
Thermal Enthalpy correction       ...      0.00094421 Eh       0.59 kcal/mol
-----------------------------------------------------------------------
Total Enthalpy                    ...   -722.32480499 Eh

Note: Only C1 symmetry has been detected, increase convergence thresholds
      if your molecule has a higher symmetry. Symmetry factor of 1.0 is
      used for the rotational entropy correction.

Note: Rotational entropy computed according to Herzberg
Infrared and Raman Spectra, Chapter V,1, Van Nostrand Reinhold, 1945
Point Group:  C1, Symmetry Number:   1
Rotational constants in cm-1:     0.030745     0.014810     0.010855

Vibrational entropy computed according to the QRRHO of S. Grimme
Chem.Eur.J. 2012 18 9955

-------
ENTROPY
-------

The entropy contributions are T*S = T*(S(el)+S(vib)+S(rot)+S(trans))
     S(el)   - electronic entropy
     S(vib)  - vibrational entropy
     S(rot)  - rotational entropy
     S(trans)- translational entropy
The entropies will be listed as multiplied by the temperature to get
units of energy

Electronic entropy                ...      0.00065446 Eh      0.41 kcal/mol
Vibrational entropy               ...      0.02085425 Eh     13.09 kcal/mol

                             ****ORCA TERMINATED NORMALLY****
TOTAL RUN TIME: 0 days 0 hours 27 minutes 6 seconds 195 msec
