                         Program Version 5.0.4 -  RELEASE  -
|  1> ! B3LYP EPR-II OPT
|  2> %pal nprocs 16 end
|  3> *XYZFile -1 2 model.xyz
|  4>
|  5>                          ****END OF INPUT****
 Total Charge           Charge          ....   -1
 Multiplicity           Mult            ....    2
 Number of Electrons    NEL             ....  107
FINAL SINGLE POINT ENERGY      -722.306232461976
FINAL SINGLE POINT ENERGY      -722.303358892861
FINAL SINGLE POINT ENERGY      -722.296436452477
FINAL SINGLE POINT ENERGY      -722.306847922197
FINAL SINGLE POINT ENERGY      -722.304765719946
FINAL SINGLE POINT ENERGY      -722.308405723640
FINAL SINGLE POINT ENERGY      -722.306587705763
FINAL SINGLE POINT ENERGY      -722.308505923111
FINAL SINGLE POINT ENERGY      -722.308533345493
FINAL SINGLE POINT ENERGY      -722.308544142059
FINAL SINGLE POINT ENERGY      -722.308546229638
FINAL SINGLE POINT ENERGY      -722.308547085501
                    ***********************HURRAY********************

CARTESIAN COORDINATES (ANGSTROEM)
---------------------------------
  N     -3.944932   -0.034768    0.010049
  C     -2.473886    0.014889   -0.115211
  C     -1.944106   -0.121514    1.344296
  O     -2.705150   -0.538090    2.242460
  C     -1.973711    1.204095   -0.896213
  H     -1.846116    1.052385   -1.964993
  C     -1.653595    2.551071   -0.338296
  H     -2.128904    3.346212   -0.923126
  H     -1.997702    2.645529    0.700655
  C     -0.090998    2.883409   -0.337231
  O      0.665495    1.944273    0.087588
  O      0.239292    4.013126   -0.736229
  H     -4.238536   -0.148210    0.976551
  C     -4.759227   -0.463289   -0.989931
  N     -0.648509    0.176272    1.526309
  H     -0.130814    0.803852    0.831280
  O     -4.382849   -0.690434   -2.143646
  C     -6.233339   -0.630027   -0.601481
  H     -6.834001    0.023522   -1.240776
  H     -6.531023   -1.662633   -0.806311
  H     -6.436220   -0.393336    0.446701
  C     -0.072548    0.094647    2.861686
  H     -0.046206   -0.940675    3.220199
  H      0.945806    0.485780    2.811315
  H     -0.648378    0.681367    3.587994
  H     -2.158040   -0.896406   -0.643323

 Multiplicity           Mult            ....    2
 Number of Electrons    NEL             ....  107
 Basis Dimension        Dim             ....  322

ORBITAL ENERGIES
----------------
                 SPIN UP ORBITALS
  NO   OCC          E(Eh)            E(eV)
   0   1.0000     -18.998641      -516.9793
   1   1.0000     -18.994234      -516.8594
   2   1.0000     -18.937647      -515.3196
   3   1.0000     -18.932915      -515.1908
   4   1.0000     -14.239322      -387.4716
   5   1.0000     -14.215074      -386.8118
   6   1.0000     -10.185496      -277.1614
   7   1.0000     -10.169894      -276.7369
   8   1.0000     -10.130878      -275.6752
   9   1.0000     -10.119123      -275.3553
  10   1.0000     -10.096609      -274.7427
  11   1.0000     -10.096608      -274.7427
  12   1.0000     -10.068868      -273.9878
  13   1.0000     -10.048899      -273.4444
  14   1.0000      -0.919617       -25.0241
  15   1.0000      -0.908606       -24.7244
  16   1.0000      -0.869246       -23.6534
  17   1.0000      -0.804749       -21.8983
  18   1.0000      -0.792337       -21.5606
  19   1.0000      -0.778822       -21.1928
  20   1.0000      -0.668435       -18.1890
  21   1.0000      -0.630529       -17.1576
  22   1.0000      -0.595822       -16.2131
  23   1.0000      -0.562622       -15.3097
  24   1.0000      -0.492396       -13.3988
  25   1.0000      -0.456847       -12.4314
  26   1.0000      -0.432129       -11.7588
  27   1.0000      -0.411819       -11.2062
  28   1.0000      -0.372708       -10.1419
  29   1.0000      -0.365782        -9.9534
  30   1.0000      -0.348059        -9.4712
  31   1.0000      -0.340640        -9.2693
  32   1.0000      -0.337161        -9.1746
  33   1.0000      -0.330380        -8.9901
  34   1.0000      -0.320311        -8.7161
  35   1.0000      -0.302195        -8.2231
  36   1.0000      -0.295465        -8.0400
  37   1.0000      -0.288944        -7.8626
  38   1.0000      -0.283218        -7.7068
  39   1.0000      -0.271701        -7.3934
  40   1.0000      -0.260763        -7.0957
  41   1.0000      -0.254950        -6.9375
  42   1.0000      -0.248660        -6.7664
  43   1.0000      -0.237439        -6.4610
  44   1.0000      -0.226107        -6.1527
  45   1.0000      -0.208083        -5.6622
  46   1.0000      -0.154047        -4.1918
  47   1.0000      -0.147313        -4.0086
  48   1.0000      -0.142266        -3.8712
  49   1.0000      -0.130617        -3.5543
  50   1.0000      -0.106103        -2.8872
  51   1.0000      -0.098547        -2.6816
  52   1.0000      -0.086146        -2.3441
  53   1.0000      -0.052399        -1.4259
  54   0.0000       0.104648         2.8476
  55   0.0000       0.121916         3.3175
  56   0.0000       0.128076         3.4851
  57   0.0000       0.138897         3.7796
  58   0.0000       0.155120         4.2210

                 SPIN DOWN ORBITALS
  NO   OCC          E(Eh)            E(eV)
   0   1.0000     -18.998578      -516.9776
   1   1.0000     -18.994078      -516.8551
   2   1.0000     -18.937205      -515.3075
   3   1.0000     -18.932348      -515.1754
   4   1.0000     -14.237789      -387.4299
   5   1.0000     -14.214976      -386.8091
   6   1.0000     -10.185493      -277.1614
   7   1.0000     -10.169589      -276.7286
   8   1.0000     -10.129533      -275.6386
   9   1.0000     -10.120001      -275.3792
  10   1.0000     -10.096605      -274.7426
  11   1.0000     -10.096524      -274.7404
  12   1.0000     -10.055470      -273.6233
  13   1.0000     -10.049707      -273.4664
  14   1.0000      -0.919164       -25.0117
  15   1.0000      -0.908294       -24.7159
  16   1.0000      -0.867757       -23.6129
  17   1.0000      -0.802318       -21.8322
  18   1.0000      -0.791464       -21.5368
  19   1.0000      -0.778018       -21.1710
  20   1.0000      -0.660561       -17.9748
  21   1.0000      -0.624409       -16.9910
  22   1.0000      -0.592137       -16.1129
  23   1.0000      -0.561450       -15.2778
  24   1.0000      -0.483543       -13.1579
  25   1.0000      -0.452809       -12.3216
  26   1.0000      -0.424537       -11.5523
  27   1.0000      -0.409119       -11.1327
  28   1.0000      -0.368808       -10.0358
  29   1.0000      -0.365155        -9.9364
  30   1.0000      -0.345043        -9.3891
  31   1.0000      -0.339103        -9.2275
  32   1.0000      -0.334135        -9.0923
  33   1.0000      -0.329355        -8.9622
  34   1.0000      -0.319087        -8.6828
  35   1.0000      -0.301665        -8.2087
  36   1.0000      -0.292903        -7.9703
  37   1.0000      -0.284993        -7.7551
  38   1.0000      -0.280884        -7.6432
  39   1.0000      -0.269779        -7.3411
  40   1.0000      -0.258588        -7.0365
  41   1.0000      -0.253557        -6.8996
  42   1.0000      -0.245793        -6.6884
  43   1.0000      -0.235897        -6.4191
  44   1.0000      -0.222765        -6.0617
  45   1.0000      -0.205731        -5.5982
  46   1.0000      -0.151516        -4.1230
  47   1.0000      -0.145193        -3.9509
  48   1.0000      -0.141447        -3.8490
  49   1.0000      -0.129866        -3.5338
  50   1.0000      -0.099083        -2.6962
  51   1.0000      -0.092921        -2.5285
  52   1.0000      -0.078428        -2.1341
  53   0.0000       0.071379         1.9423
  54   0.0000       0.105978         2.8838
  55   0.0000       0.122433         3.3316
  56   0.0000       0.128909         3.5078
  57   0.0000       0.139982         3.8091

MULLIKEN ATOMIC CHARGES AND SPIN POPULATIONS
--------------------------------------------
   0 N :   -0.096122    0.036460
   1 C :   -0.099963   -0.045645
   2 C :    0.031258    0.009347
   3 O :   -0.414691    0.003639
   4 C :   -0.104744    0.968799
   5 H :    0.106149   -0.049464
   6 C :   -0.360965   -0.055336
   7 H :    0.145529    0.028054
   8 H :    0.142743    0.003943
   9 C :    0.125056    0.042717
  10 O :   -0.420763    0.013922
  11 O :   -0.400346    0.021546
  12 H :    0.236228    0.002464
  13 C :    0.164116    0.005777
  14 N :   -0.057619    0.004260
  15 H :    0.271901    0.000303
  16 O :   -0.345822    0.001081
  17 C :   -0.571270    0.002055
  18 H :    0.174874    0.000729
  19 H :    0.171639   -0.000392
  20 H :    0.147797   -0.000104
  21 C :   -0.478850   -0.000337
  22 H :    0.152259    0.000340
  23 H :    0.159331    0.000062
  24 H :    0.157655    0.000004
  25 H :    0.164621    0.005777
Sum of atomic charges         :   -1.0000000

LOEWDIN ATOMIC CHARGES AND SPIN POPULATIONS
-------------------------------------------
   0 N :    0.059141    0.042019
   1 C :   -0.054912    0.018558
   2 C :   -0.106581    0.010162
   3 O :   -0.251608    0.005054
   4 C :   -0.037391    0.779023
   5 H :    0.039399    0.005938
   6 C :   -0.089189    0.010924
   7 H :    0.049797    0.022933
   8 H :    0.051703    0.002060
   9 C :   -0.179949    0.050184
  10 O :   -0.295223    0.012905
  11 O :   -0.270923    0.019016
  12 H :    0.085637    0.002286
  13 C :   -0.114379    0.004120
  14 N :    0.034962    0.003065
  15 H :    0.079462    0.001393
  16 O :   -0.212590    0.001965
  17 C :   -0.059025    0.003115
  18 H :    0.047120    0.000483
  19 H :    0.045850   -0.000095
  20 H :    0.030497    0.000053
  21 C :   -0.015709    0.000337
  22 H :    0.027316    0.000152
  23 H :    0.035045    0.000063
  24 H :    0.030622   -0.000037
  25 H :    0.070930    0.004326

  Mayer bond orders larger than 0.100000
B(  0-N ,  1-C ) :   0.9918 B(  0-N , 12-H ) :   0.8843 B(  0-N , 13-C ) :   1.2348
B(  1-C ,  2-C ) :   0.9015 B(  1-C ,  4-C ) :   1.0098 B(  1-C , 16-O ) :   0.1161
B(  1-C , 25-H ) :   0.9764 B(  2-C ,  3-O ) :   1.7150 B(  2-C , 14-N ) :   1.2998
B(  4-C ,  5-H ) :   0.9871 B(  4-C ,  6-C ) :   1.0268 B(  6-C ,  7-H ) :   0.9738
B(  6-C ,  8-H ) :   0.9767 B(  6-C ,  9-C ) :   0.8606 B(  9-C , 10-O ) :   1.4631
B(  9-C , 11-O ) :   1.7059 B( 10-O , 15-H ) :   0.2322 B( 13-C , 16-O ) :   1.8315
B( 13-C , 17-C ) :   0.8772 B( 14-N , 15-H ) :   0.7372 B( 14-N , 21-C ) :   0.9608
B( 17-C , 18-H ) :   0.9670 B( 17-C , 19-H ) :   0.9680 B( 17-C , 20-H ) :   0.9781
B( 21-C , 22-H ) :   0.9641 B( 21-C , 23-H ) :   0.9692 B( 21-C , 24-H ) :   0.9561

FINAL SINGLE POINT ENERGY      -722.308548521845

DIPOLE MOMENT
-------------
                                X             Y             Z
Electronic contribution:      3.60224       1.76566      -3.55337
Nuclear contribution   :     -6.06822      -3.68000       4.81449
                        -----------------------------------------
Total Dipole Moment    :     -2.46598      -1.91434       1.26111
                        -----------------------------------------
Magnitude (a.u.)       :      3.36692
Magnitude (Debye)      :      8.55803

Rotational constants in cm-1:     0.031287     0.013902     0.010439
Rotational constants in MHz :   937.966096   416.780890   312.940168

                             ****ORCA TERMINATED NORMALLY****
TOTAL RUN TIME: 0 days 0 hours 7 minutes 7 seconds 658 msec
