                         Program Version 5.0.4 -  RELEASE  -
|  1> ! B3LYP EPR-II AUTOAUX
|  2> %pal nprocs 16 end
|  3> *XYZFile 0 2 opt.xyz
|  4> %EPRNMR
|  5>         GTENSOR   TRUE
|  6>         NUCLEI    = 1,4,7,8,10,11,12,13,15,16,17,27 {SHIFT, AISO, ADIP, AORB}
|  7>         ORI       GIAO
|  8> END
|  9>
| 10>                          ****END OF INPUT****

CARTESIAN COORDINATES (ANGSTROEM)
---------------------------------
  N     -4.130930   -4.512757   -0.658838
  C     -2.691215   -4.637412   -0.482982
  C     -2.442690   -4.772966    1.044244
  O     -3.241304   -4.317106    1.862989
  C     -1.907103   -3.459516   -1.019021
  C     -2.357872   -2.042572   -0.787855
  H     -3.000406   -1.965076    0.091701
  H     -1.487063   -1.388317   -0.657874
  C     -3.157355   -1.506927   -1.981090
  O     -2.364091   -1.294006   -3.061234
  O     -4.353070   -1.298033   -1.992664
  H     -4.655229   -4.252099    0.166219
  H     -2.345958   -5.542344   -0.995444
  C     -4.711857   -4.570741   -1.898003
  N     -1.276240   -5.391733    1.380281
  H     -2.950481   -1.025083   -3.787039
  H     -0.681112   -5.715298    0.632632
  O     -4.055441   -4.808665   -2.912449
  C     -6.209074   -4.296571   -1.936846
  H     -6.349268   -3.254204   -2.240573
  H     -6.665892   -4.941586   -2.689552
  H     -6.697174   -4.449074   -0.970306
  C     -0.813293   -5.531839    2.756829
  H     -0.597763   -6.579943    2.986371
  H      0.087335   -4.933494    2.933543
  H     -1.607738   -5.177528    3.413784
  H     -1.072794   -3.643545   -1.688766

 Total Charge           Charge          ....    0
 Multiplicity           Mult            ....    2
 Number of Electrons    NEL             ....  107
 Basis Dimension        Dim             ....  329

ORBITAL ENERGIES
----------------
                 SPIN UP ORBITALS
  NO   OCC          E(Eh)            E(eV)
   0   1.0000     -19.193360      -522.2779
   1   1.0000     -19.140986      -520.8527
   2   1.0000     -19.128526      -520.5137
   3   1.0000     -19.101240      -519.7712
   4   1.0000     -14.378065      -391.2470
   5   1.0000     -14.351676      -390.5289
   6   1.0000     -10.333611      -281.1919
   7   1.0000     -10.311177      -280.5814
   8   1.0000     -10.287429      -279.9352
   9   1.0000     -10.250900      -278.9412
  10   1.0000     -10.229133      -278.3489
  11   1.0000     -10.218582      -278.0617
  12   1.0000     -10.213242      -277.9164
  13   1.0000     -10.179673      -277.0030
  14   1.0000      -1.108792       -30.1718
  15   1.0000      -1.051638       -28.6165
  16   1.0000      -1.023615       -27.8540
  17   1.0000      -1.019067       -27.7302
  18   1.0000      -0.937609       -25.5137
  19   1.0000      -0.920059       -25.0361
  20   1.0000      -0.809825       -22.0365
  21   1.0000      -0.760740       -20.7008
  22   1.0000      -0.727299       -19.7908
  23   1.0000      -0.700663       -19.0660
  24   1.0000      -0.640920       -17.4403
  25   1.0000      -0.607119       -16.5206
  26   1.0000      -0.601688       -16.3728
  27   1.0000      -0.569749       -15.5037
  28   1.0000      -0.538609       -14.6563
  29   1.0000      -0.503535       -13.7019
  30   1.0000      -0.494751       -13.4629
  31   1.0000      -0.483299       -13.1512
  32   1.0000      -0.477647       -12.9974
  33   1.0000      -0.473731       -12.8909
  34   1.0000      -0.462239       -12.5782
  35   1.0000      -0.454912       -12.3788
  36   1.0000      -0.446551       -12.1513
  37   1.0000      -0.432782       -11.7766
  38   1.0000      -0.417521       -11.3613
  39   1.0000      -0.405803       -11.0425
  40   1.0000      -0.402768       -10.9599
  41   1.0000      -0.398421       -10.8416
  42   1.0000      -0.397395       -10.8137
  43   1.0000      -0.387912       -10.5556
  44   1.0000      -0.377288       -10.2665
  45   1.0000      -0.375763       -10.2250
  46   1.0000      -0.346651        -9.4329
  47   1.0000      -0.325713        -8.8631
  48   1.0000      -0.296533        -8.0691
  49   1.0000      -0.282327        -7.6825
  50   1.0000      -0.274823        -7.4783
  51   1.0000      -0.255996        -6.9660
  52   1.0000      -0.247028        -6.7220
  53   1.0000      -0.206610        -5.6222
  54   0.0000      -0.002652        -0.0722
  55   0.0000       0.007274         0.1979
  56   0.0000       0.009228         0.2511
  57   0.0000       0.024647         0.6707
  58   0.0000       0.028027         0.7627

                 SPIN DOWN ORBITALS
  NO   OCC          E(Eh)            E(eV)
   0   1.0000     -19.193203      -522.2736
   1   1.0000     -19.140633      -520.8431
   2   1.0000     -19.128169      -520.5040
   3   1.0000     -19.101079      -519.7668
   4   1.0000     -14.377692      -391.2369
   5   1.0000     -14.350892      -390.5076
   6   1.0000     -10.332309      -281.1564
   7   1.0000     -10.310252      -280.5562
   8   1.0000     -10.287390      -279.9341
   9   1.0000     -10.251735      -278.9639
  10   1.0000     -10.229146      -278.3492
  11   1.0000     -10.214072      -277.9390
  12   1.0000     -10.204893      -277.6892
  13   1.0000     -10.179604      -277.0011
  14   1.0000      -1.108098       -30.1529
  15   1.0000      -1.050731       -28.5919
  16   1.0000      -1.023153       -27.8414
  17   1.0000      -1.018360       -27.7110
  18   1.0000      -0.936758       -25.4905
  19   1.0000      -0.918016       -24.9805
  20   1.0000      -0.797105       -21.6903
  21   1.0000      -0.758865       -20.6498
  22   1.0000      -0.726831       -19.7781
  23   1.0000      -0.695977       -18.9385
  24   1.0000      -0.631028       -17.1711
  25   1.0000      -0.602338       -16.3904
  26   1.0000      -0.600499       -16.3404
  27   1.0000      -0.563642       -15.3375
  28   1.0000      -0.535175       -14.5629
  29   1.0000      -0.500741       -13.6259
  30   1.0000      -0.491588       -13.3768
  31   1.0000      -0.480343       -13.0708
  32   1.0000      -0.475861       -12.9488
  33   1.0000      -0.471467       -12.8293
  34   1.0000      -0.460638       -12.5346
  35   1.0000      -0.453742       -12.3469
  36   1.0000      -0.444907       -12.1065
  37   1.0000      -0.431759       -11.7488
  38   1.0000      -0.415306       -11.3010
  39   1.0000      -0.405537       -11.0352
  40   1.0000      -0.399657       -10.8752
  41   1.0000      -0.396565       -10.7911
  42   1.0000      -0.395859       -10.7719
  43   1.0000      -0.386983       -10.5304
  44   1.0000      -0.374906       -10.2017
  45   1.0000      -0.372670       -10.1409
  46   1.0000      -0.344896        -9.3851
  47   1.0000      -0.325004        -8.8438
  48   1.0000      -0.286105        -7.7853
  49   1.0000      -0.279937        -7.6175
  50   1.0000      -0.272809        -7.4235
  51   1.0000      -0.253494        -6.8979
  52   1.0000      -0.245483        -6.6799
  53   0.0000      -0.075122        -2.0442
  54   0.0000       0.000453         0.0123
  55   0.0000       0.008751         0.2381
  56   0.0000       0.013190         0.3589
  57   0.0000       0.027421         0.7462

MULLIKEN ATOMIC CHARGES AND SPIN POPULATIONS
--------------------------------------------
   0 N :   -0.124655    0.023567
   1 C :   -0.124594   -0.054917
   2 C :    0.082722    0.024370
   3 O :   -0.325052    0.012518
   4 C :   -0.072543    0.982520
   5 C :   -0.312933   -0.053130
   6 H :    0.182446    0.006375
   7 H :    0.157372    0.022791
   8 C :    0.147251    0.033491
   9 O :   -0.245898    0.004190
  10 O :   -0.253075    0.012415
  11 H :    0.253913   -0.000896
  12 H :    0.162275    0.008841
  13 C :    0.181594    0.001056
  14 N :   -0.091403    0.016623
  15 H :    0.289643    0.001324
  16 H :    0.232101   -0.000270
  17 O :   -0.325082    0.004125
  18 C :   -0.552698    0.002647
  19 H :    0.205799    0.000526
  20 H :    0.180754   -0.000171
  21 H :    0.148567   -0.000130
  22 C :   -0.456508   -0.001097
  23 H :    0.163892    0.000186
  24 H :    0.165794    0.001416
  25 H :    0.199939    0.000516
  26 H :    0.130377   -0.048887
Sum of atomic charges         :   -0.0000000

LOEWDIN ATOMIC CHARGES AND SPIN POPULATIONS
-------------------------------------------
   0 N :    0.059965    0.022282
   1 C :   -0.057918    0.013691
   2 C :   -0.089170    0.031817
   3 O :   -0.190555    0.012255
   4 C :   -0.008360    0.790259
   5 C :   -0.041029    0.011737
   6 H :    0.069911    0.004669
   7 H :    0.065628    0.017353
   8 C :   -0.080676    0.041065
   9 O :    0.022973    0.003791
  10 O :   -0.140356    0.011624
  11 H :    0.092696    0.000283
  12 H :    0.066846    0.004322
  13 C :   -0.098328    0.003664
  14 N :    0.045468    0.014106
  15 H :    0.104095    0.001145
  16 H :    0.080786    0.000325
  17 O :   -0.188381    0.004198
  18 C :   -0.042906    0.002378
  19 H :    0.063525    0.000419
  20 H :    0.051919   -0.000048
  21 H :    0.036242   -0.000016
  22 C :    0.012799    0.000392
  23 H :    0.032543    0.000188
  24 H :    0.032464    0.000902
  25 H :    0.055039    0.000292
  26 H :    0.044781    0.006908

  Mayer bond orders larger than 0.100000
B(  0-N ,  1-C ) :   1.0250 B(  0-N , 11-H ) :   0.8908 B(  0-N , 13-C ) :   1.2154
B(  1-C ,  2-C ) :   0.8716 B(  1-C ,  4-C ) :   1.0013 B(  1-C , 12-H ) :   0.9694
B(  1-C , 17-O ) :   0.1231 B(  2-C ,  3-O ) :   1.8691 B(  2-C , 14-N ) :   1.2017
B(  4-C ,  5-C ) :   0.9813 B(  4-C , 26-H ) :   0.9660 B(  5-C ,  6-H ) :   0.9764
B(  5-C ,  7-H ) :   0.9530 B(  5-C ,  8-C ) :   0.8806 B(  8-C ,  9-O ) :   1.1444
B(  8-C , 10-O ) :   1.9463 B(  9-O , 15-H ) :   0.8931 B( 13-C , 17-O ) :   1.8561
B( 13-C , 18-C ) :   0.8865 B( 14-N , 16-H ) :   0.9306 B( 14-N , 22-C ) :   0.9686
B( 18-C , 19-H ) :   0.9464 B( 18-C , 20-H ) :   0.9638 B( 18-C , 21-H ) :   0.9741
B( 22-C , 23-H ) :   0.9606 B( 22-C , 24-H ) :   0.9570 B( 22-C , 25-H ) :   0.9439

FINAL SINGLE POINT ENERGY      -722.839888858944

DIPOLE MOMENT
-------------
                                X             Y             Z
Electronic contribution:     -1.13826       3.74273      -5.18366
Nuclear contribution   :      2.50036      -4.12341       5.94352
                        -----------------------------------------
Total Dipole Moment    :      1.36210      -0.38068       0.75986
                        -----------------------------------------
Magnitude (a.u.)       :      1.60550
Magnitude (Debye)      :      4.08085

Rotational constants in cm-1:     0.031849     0.014570     0.011909
Rotational constants in MHz :   954.799966   436.789126   357.008386

CHEMICAL SHIELDING SUMMARY (ppm)  --  Orbital contribution
----------------------------------------------------------

  Nucleus  Element    Isotropic     Anisotropy
  -------  -------  ------------   ------------
      0       N          126.395        136.008
      3       O          -28.479        528.798
      6       H           29.041          2.331
      7       H           28.900          6.301
      9       O          120.212        176.211
     10       O          -79.957       -289.549
     11       H           25.369          7.235
     12       H           27.235          4.905
     14       N          144.673         99.568
     15       H           26.235         11.011
     16       H           27.438          6.544
     26       H           26.583          3.567

                             ****ORCA TERMINATED NORMALLY****
TOTAL RUN TIME: 0 days 0 hours 5 minutes 5 seconds 161 msec
