                         Program Version 5.0.4 -  RELEASE  -
|  1> ! M062X def2-TZVP OPT FREQ
|  2> %pal nprocs 16 end
|  3> *XYZFile 0 2 opt.xyz
|  4>
|  5>                          ****END OF INPUT****
 Total Charge           Charge          ....    0
 Multiplicity           Mult            ....    2
 Number of Electrons    NEL             ....  107
FINAL SINGLE POINT ENERGY      -723.070568681693
FINAL SINGLE POINT ENERGY      -723.072755967867
FINAL SINGLE POINT ENERGY      -723.072992218083
FINAL SINGLE POINT ENERGY      -723.074403992977
FINAL SINGLE POINT ENERGY      -723.074870212280
FINAL SINGLE POINT ENERGY      -723.074684400851
FINAL SINGLE POINT ENERGY      -723.075062926021
FINAL SINGLE POINT ENERGY      -723.075085996057
FINAL SINGLE POINT ENERGY      -723.075105997525
FINAL SINGLE POINT ENERGY      -723.075132067263
FINAL SINGLE POINT ENERGY      -723.075432760195
FINAL SINGLE POINT ENERGY      -723.075426456882
FINAL SINGLE POINT ENERGY      -723.075420222195
FINAL SINGLE POINT ENERGY      -723.075414245082
FINAL SINGLE POINT ENERGY      -723.075408678323
FINAL SINGLE POINT ENERGY      -723.075403598325
FINAL SINGLE POINT ENERGY      -723.075400331793
FINAL SINGLE POINT ENERGY      -723.075400647222
FINAL SINGLE POINT ENERGY      -723.075404452539
                    ***********************HURRAY********************

CARTESIAN COORDINATES (ANGSTROEM)
---------------------------------
  N     -4.127709   -4.495715   -0.662943
  C     -2.710027   -4.694156   -0.475595
  C     -2.490586   -4.892416    1.037863
  O     -3.398437   -4.771543    1.836224
  C     -1.883152   -3.558243   -1.000033
  C     -2.334254   -2.152630   -0.786391
  H     -2.933177   -2.057835    0.118843
  H     -1.471959   -1.484260   -0.725286
  C     -3.194326   -1.680707   -1.946007
  O     -2.493552   -1.625992   -3.085709
  O     -4.356670   -1.395417   -1.873812
  H     -4.690005   -4.461182    0.175172
  H     -2.395927   -5.611972   -0.982554
  C     -4.659679   -4.359842   -1.902408
  N     -1.224118   -5.203033    1.380931
  H     -3.119669   -1.448881   -3.802785
  H     -0.532478   -5.228711    0.650026
  O     -3.962439   -4.399599   -2.901108
  C     -6.144834   -4.110180   -1.950481
  H     -6.299937   -3.032174   -1.885150
  H     -6.528967   -4.464796   -2.902980
  H     -6.671169   -4.594184   -1.128904
  C     -0.814892   -5.419770    2.752803
  H     -0.587982   -6.470777    2.936643
  H      0.062817   -4.818860    2.988304
  H     -1.638486   -5.119348    3.395216
  H     -1.133467   -3.756211   -1.751822

 Multiplicity           Mult            ....    2
 Number of Electrons    NEL             ....  107
 Basis Dimension        Dim             ....  512

ORBITAL ENERGIES
----------------
                 SPIN UP ORBITALS
  NO   OCC          E(Eh)            E(eV)
   0   1.0000     -19.670731      -535.2678
   1   1.0000     -19.618776      -533.8540
   2   1.0000     -19.612635      -533.6869
   3   1.0000     -19.586917      -532.9871
   4   1.0000     -14.790154      -402.4606
   5   1.0000     -14.767147      -401.8345
   6   1.0000     -10.678493      -290.5766
   7   1.0000     -10.659994      -290.0732
   8   1.0000     -10.637604      -289.4639
   9   1.0000     -10.600410      -288.4518
  10   1.0000     -10.580505      -287.9102
  11   1.0000     -10.569267      -287.6044
  12   1.0000     -10.560579      -287.3680
  13   1.0000     -10.529222      -286.5147
  14   1.0000      -1.240007       -33.7423
  15   1.0000      -1.187154       -32.3041
  16   1.0000      -1.159689       -31.5567
  17   1.0000      -1.144194       -31.1351
  18   1.0000      -1.053455       -28.6660
  19   1.0000      -1.038074       -28.2474
  20   1.0000      -0.918354       -24.9897
  21   1.0000      -0.863209       -23.4891
  22   1.0000      -0.827323       -22.5126
  23   1.0000      -0.794588       -21.6218
  24   1.0000      -0.732152       -19.9229
  25   1.0000      -0.695151       -18.9160
  26   1.0000      -0.687772       -18.7152
  27   1.0000      -0.652286       -17.7496
  28   1.0000      -0.622177       -16.9303
  29   1.0000      -0.594680       -16.1821
  30   1.0000      -0.581664       -15.8279
  31   1.0000      -0.574353       -15.6289
  32   1.0000      -0.559549       -15.2261
  33   1.0000      -0.556083       -15.1318
  34   1.0000      -0.547977       -14.9112
  35   1.0000      -0.534343       -14.5402
  36   1.0000      -0.529978       -14.4214
  37   1.0000      -0.512289       -13.9401
  38   1.0000      -0.494216       -13.4483
  39   1.0000      -0.478461       -13.0196
  40   1.0000      -0.476968       -12.9790
  41   1.0000      -0.473328       -12.8799
  42   1.0000      -0.471663       -12.8346
  43   1.0000      -0.457740       -12.4558
  44   1.0000      -0.448466       -12.2034
  45   1.0000      -0.444063       -12.0836
  46   1.0000      -0.420163       -11.4332
  47   1.0000      -0.398725       -10.8499
  48   1.0000      -0.378445       -10.2980
  49   1.0000      -0.358943        -9.7673
  50   1.0000      -0.345772        -9.4089
  51   1.0000      -0.331995        -9.0340
  52   1.0000      -0.323085        -8.7916
  53   1.0000      -0.264108        -7.1867
  54   0.0000       0.039657         1.0791
  55   0.0000       0.049001         1.3334
  56   0.0000       0.054771         1.4904
  57   0.0000       0.068773         1.8714
  58   0.0000       0.072351         1.9688

                 SPIN DOWN ORBITALS
  NO   OCC          E(Eh)            E(eV)
   0   1.0000     -19.670632      -535.2651
   1   1.0000     -19.618581      -533.8487
   2   1.0000     -19.612479      -533.6827
   3   1.0000     -19.586613      -532.9788
   4   1.0000     -14.789882      -402.4532
   5   1.0000     -14.766622      -401.8202
   6   1.0000     -10.677491      -290.5493
   7   1.0000     -10.659299      -290.0543
   8   1.0000     -10.637615      -289.4642
   9   1.0000     -10.601067      -288.4697
  10   1.0000     -10.580521      -287.9106
  11   1.0000     -10.562373      -287.4168
  12   1.0000     -10.561202      -287.3849
  13   1.0000     -10.529176      -286.5134
  14   1.0000      -1.239238       -33.7214
  15   1.0000      -1.186313       -32.2812
  16   1.0000      -1.158980       -31.5375
  17   1.0000      -1.143533       -31.1171
  18   1.0000      -1.052489       -28.6397
  19   1.0000      -1.035728       -28.1836
  20   1.0000      -0.903319       -24.5805
  21   1.0000      -0.860729       -23.4216
  22   1.0000      -0.826539       -22.4913
  23   1.0000      -0.789270       -21.4771
  24   1.0000      -0.719251       -19.5718
  25   1.0000      -0.689891       -18.7729
  26   1.0000      -0.686814       -18.6892
  27   1.0000      -0.644568       -17.5396
  28   1.0000      -0.616993       -16.7892
  29   1.0000      -0.590742       -16.0749
  30   1.0000      -0.579275       -15.7629
  31   1.0000      -0.569442       -15.4953
  32   1.0000      -0.557244       -15.1634
  33   1.0000      -0.553958       -15.0740
  34   1.0000      -0.546106       -14.8603
  35   1.0000      -0.531390       -14.4599
  36   1.0000      -0.528479       -14.3806
  37   1.0000      -0.510251       -13.8846
  38   1.0000      -0.491451       -13.3731
  39   1.0000      -0.477173       -12.9845
  40   1.0000      -0.474338       -12.9074
  41   1.0000      -0.471379       -12.8269
  42   1.0000      -0.469110       -12.7651
  43   1.0000      -0.456824       -12.4308
  44   1.0000      -0.445985       -12.1359
  45   1.0000      -0.440265       -11.9802
  46   1.0000      -0.417721       -11.3668
  47   1.0000      -0.398043       -10.8313
  48   1.0000      -0.363890        -9.9019
  49   1.0000      -0.354967        -9.6591
  50   1.0000      -0.343557        -9.3487
  51   1.0000      -0.328503        -8.9390
  52   1.0000      -0.320755        -8.7282
  53   0.0000      -0.029137        -0.7929
  54   0.0000       0.038881         1.0580
  55   0.0000       0.050748         1.3809
  56   0.0000       0.056334         1.5329
  57   0.0000       0.071045         1.9332

MULLIKEN ATOMIC CHARGES AND SPIN POPULATIONS
--------------------------------------------
   0 N :   -0.361991    0.019515
   1 C :   -0.120756   -0.060695
   2 C :    0.385821    0.014914
   3 O :   -0.406790    0.004176
   4 C :   -0.174646    1.061879
   5 C :   -0.301568   -0.102814
   6 H :    0.177075    0.008627
   7 H :    0.165883    0.019491
   8 C :    0.339367    0.055918
   9 O :   -0.391732   -0.000672
  10 O :   -0.330613    0.005917
  11 H :    0.274578   -0.001007
  12 H :    0.181549    0.001827
  13 C :    0.335950    0.000981
  14 N :   -0.341232    0.015833
  15 H :    0.342359    0.000647
  16 H :    0.247426   -0.001659
  17 O :   -0.396223    0.000602
  18 C :   -0.457047    0.002513
  19 H :    0.183248    0.000416
  20 H :    0.154768    0.000081
  21 H :    0.135906   -0.000157
  22 C :   -0.308573   -0.000728
  23 H :    0.148044    0.000246
  24 H :    0.143812    0.001044
  25 H :    0.181361    0.000400
  26 H :    0.194021   -0.047293
Sum of atomic charges         :    0.0000000

LOEWDIN ATOMIC CHARGES AND SPIN POPULATIONS
-------------------------------------------
   0 N :    0.147726    0.017925
   1 C :   -0.264448    0.056012
   2 C :   -0.431902    0.025285
   3 O :    0.061873    0.005008
   4 C :   -0.091031    0.741630
   5 C :   -0.229003    0.057139
   6 H :    0.161222    0.003497
   7 H :    0.160863    0.011976
   8 C :   -0.512074    0.033982
   9 O :    0.111839    0.004237
  10 O :    0.104806    0.006961
  11 H :    0.196669    0.000259
  12 H :    0.169037    0.001996
  13 C :   -0.483962    0.003293
  14 N :    0.100953    0.014423
  15 H :    0.203803    0.000550
  16 H :    0.187224    0.003516
  17 O :    0.061874    0.007794
  18 C :   -0.262101    0.002176
  19 H :    0.144651    0.000319
  20 H :    0.135086    0.000045
  21 H :    0.125081    0.000004
  22 C :   -0.300376    0.001105
  23 H :    0.116048    0.000157
  24 H :    0.116414    0.000599
  25 H :    0.133949    0.000199
  26 H :    0.135776   -0.000087

  Mayer bond orders larger than 0.100000
B(  0-N ,  1-C ) :   0.9335 B(  0-N , 11-H ) :   0.8820 B(  0-N , 13-C ) :   1.1842
B(  1-C ,  2-C ) :   0.9514 B(  1-C ,  4-C ) :   0.9594 B(  1-C , 12-H ) :   0.9684
B(  2-C ,  3-O ) :   1.9036 B(  2-C , 14-N ) :   1.2429 B(  4-C ,  5-C ) :   0.9240
B(  4-C , 26-H ) :   0.9466 B(  5-C ,  6-H ) :   0.9786 B(  5-C ,  7-H ) :   0.9473
B(  5-C ,  8-C ) :   0.9450 B(  8-C ,  9-O ) :   1.2041 B(  8-C , 10-O ) :   2.0242
B(  9-O , 15-H ) :   0.8579 B( 13-C , 17-O ) :   1.9262 B( 13-C , 18-C ) :   0.9320
B( 14-N , 16-H ) :   0.9155 B( 14-N , 22-C ) :   0.9048 B( 18-C , 19-H ) :   0.9278
B( 18-C , 20-H ) :   0.9803 B( 18-C , 21-H ) :   0.9797 B( 22-C , 23-H ) :   0.9701
B( 22-C , 24-H ) :   0.9673 B( 22-C , 25-H ) :   0.9626

FINAL SINGLE POINT ENERGY      -723.075411512921

DIPOLE MOMENT
-------------
                                X             Y             Z
Electronic contribution:     -1.33211       3.15472      -5.09876
Nuclear contribution   :      2.67272      -3.52661       5.74895
                        -----------------------------------------
Total Dipole Moment    :      1.34062      -0.37189       0.65019
                        -----------------------------------------
Magnitude (a.u.)       :      1.53567
Magnitude (Debye)      :      3.90338

VIBRATIONAL FREQUENCIES
-----------------------

Scaling factor for frequencies =  1.000000000  (already applied!)

   0:         0.00 cm**-1
   1:         0.00 cm**-1
   2:         0.00 cm**-1
   3:         0.00 cm**-1
   4:         0.00 cm**-1
   5:         0.00 cm**-1
   6:       -33.84 cm**-1 ***imaginary mode***
   7:        46.43 cm**-1
   8:        71.59 cm**-1
   9:        83.80 cm**-1
  10:        94.31 cm**-1
  11:       112.68 cm**-1
  12:       123.34 cm**-1
  13:       129.13 cm**-1
  14:       135.15 cm**-1
  15:       139.67 cm**-1
  16:       162.87 cm**-1
  17:       240.50 cm**-1
  18:       264.47 cm**-1
  19:       297.31 cm**-1
  20:       307.02 cm**-1
  21:       385.44 cm**-1
  22:       423.18 cm**-1
  23:       447.77 cm**-1
  24:       475.45 cm**-1
  25:       502.87 cm**-1
  26:       530.30 cm**-1
  27:       544.31 cm**-1
  28:       578.03 cm**-1
  29:       593.68 cm**-1
  30:       626.94 cm**-1
  31:       653.31 cm**-1
  32:       726.25 cm**-1
  33:       746.86 cm**-1
  34:       807.46 cm**-1
  35:       882.43 cm**-1
  36:       898.42 cm**-1
  37:       925.40 cm**-1
  38:       971.61 cm**-1
  39:      1016.23 cm**-1
  40:      1026.96 cm**-1
  41:      1063.81 cm**-1
  42:      1078.31 cm**-1
  43:      1129.04 cm**-1
  44:      1160.14 cm**-1
  45:      1178.38 cm**-1
  46:      1181.03 cm**-1
  47:      1209.21 cm**-1
  48:      1237.00 cm**-1
  49:      1248.53 cm**-1
  50:      1272.41 cm**-1
  51:      1290.41 cm**-1
  52:      1318.61 cm**-1
  53:      1372.96 cm**-1
  54:      1378.53 cm**-1
  55:      1396.08 cm**-1
  56:      1408.28 cm**-1
  57:      1450.95 cm**-1
  58:      1462.46 cm**-1
  59:      1473.44 cm**-1
  60:      1490.64 cm**-1
  61:      1503.01 cm**-1
  62:      1513.50 cm**-1
  63:      1537.45 cm**-1
  64:      1586.07 cm**-1
  65:      1770.98 cm**-1
  66:      1791.61 cm**-1
  67:      1857.09 cm**-1
  68:      3069.32 cm**-1
  69:      3078.26 cm**-1
  70:      3081.76 cm**-1
  71:      3085.86 cm**-1
  72:      3145.29 cm**-1
  73:      3154.61 cm**-1
  74:      3166.64 cm**-1
  75:      3192.30 cm**-1
  76:      3193.47 cm**-1
  77:      3234.90 cm**-1
  78:      3614.29 cm**-1
  79:      3647.72 cm**-1
  80:      3803.96 cm**-1

IR SPECTRUM
-----------

 Mode   freq       eps      Int      T**2         TX        TY        TZ
       cm**-1   L/(mol*cm) km/mol    a.u.
----------------------------------------------------------------------------
  7:     46.43   0.000015    0.08  0.000100  (-0.002981 -0.006802 -0.006713)
  8:     71.59   0.000088    0.45  0.000384  ( 0.004285  0.018437  0.005091)
  9:     83.80   0.000060    0.31  0.000225  (-0.008180  0.012564  0.000488)
 10:     94.31   0.000964    4.87  0.003189  (-0.003329  0.055883 -0.007416)
 11:    112.68   0.000771    3.90  0.002135  ( 0.004878 -0.041109  0.020536)
 12:    123.34   0.001541    7.79  0.003898  (-0.036304 -0.002290 -0.050745)
 13:    129.13   0.001634    8.26  0.003948  ( 0.000497 -0.062483  0.006606)
 14:    135.15   0.000022    0.11  0.000052  ( 0.003266  0.006309 -0.001116)
 15:    139.67   0.002924   14.78  0.006534  ( 0.040380  0.059980  0.036134)
 16:    162.87   0.000394    1.99  0.000754  (-0.006168  0.026248 -0.005223)
 17:    240.50   0.000984    4.97  0.001277  (-0.031564 -0.012158 -0.011539)
 18:    264.47   0.000993    5.02  0.001171  (-0.019897  0.021137 -0.018132)
 19:    297.31   0.000163    0.82  0.000171  ( 0.008896  0.002499  0.009268)
 20:    307.02   0.000622    3.14  0.000632  ( 0.003563 -0.024621  0.003677)
 21:    385.44   0.004165   21.05  0.003372  (-0.036085  0.022358 -0.039628)
 22:    423.18   0.002173   10.98  0.001603  (-0.025678  0.030383 -0.004502)
 23:    447.77   0.013900   70.25  0.009688  ( 0.016504  0.096092 -0.013473)
 24:    475.45   0.002568   12.98  0.001685  ( 0.001758  0.033479  0.023695)
 25:    502.87   0.005711   28.86  0.003544  ( 0.026179 -0.053356  0.003456)
 26:    530.30   0.010219   51.64  0.006013  (-0.021944 -0.074074  0.006699)
 27:    544.31   0.017534   88.61  0.010053  (-0.002186 -0.094285  0.034034)
 28:    578.03   0.005922   29.93  0.003197  (-0.041500 -0.037391 -0.008771)
 29:    593.68   0.011754   59.40  0.006178  ( 0.027777  0.051075  0.052896)
 30:    626.94   0.001973    9.97  0.000982  ( 0.013548  0.005160  0.027781)
 31:    653.31   0.001592    8.04  0.000760  (-0.001550 -0.020348  0.018545)
 32:    726.25   0.000341    1.72  0.000146  (-0.000674 -0.003400  0.011592)
 33:    746.86   0.006153   31.09  0.002571  ( 0.007624  0.041837 -0.027613)
 34:    807.46   0.003270   16.53  0.001264  ( 0.006074 -0.027789  0.021326)
 35:    882.43   0.000514    2.60  0.000182  (-0.012471 -0.004342  0.002714)
 36:    898.42   0.000267    1.35  0.000093  ( 0.007008  0.000241 -0.006606)
 37:    925.40   0.001040    5.26  0.000351  (-0.007004  0.016863  0.004178)
 38:    971.61   0.000600    3.03  0.000193  ( 0.010613  0.004243  0.007873)
 39:   1016.23   0.002621   13.24  0.000805  ( 0.000296  0.002633 -0.028245)
 40:   1026.96   0.001083    5.47  0.000329  ( 0.017957  0.000176 -0.002561)
 41:   1063.81   0.001832    9.26  0.000537  (-0.003907 -0.022841  0.000697)
 42:   1078.31   0.001791    9.05  0.000518  (-0.021510  0.004642  0.005839)
 43:   1129.04   0.006721   33.97  0.001858  ( 0.012575  0.006704 -0.040678)
 44:   1160.14   0.001901    9.61  0.000511  (-0.009919  0.003248 -0.020058)
 45:   1178.38   0.014643   74.00  0.003878  (-0.036319 -0.011833  0.049180)
 46:   1181.03   0.005741   29.01  0.001517  ( 0.024871 -0.016461  0.025050)
 47:   1209.21   0.003566   18.02  0.000920  (-0.028828 -0.000061 -0.009452)
 48:   1237.00   0.008889   44.92  0.002242  ( 0.032534  0.011950 -0.032268)
 49:   1248.53   0.024727  124.96  0.006181  ( 0.001587 -0.025889  0.074214)
 50:   1272.41   0.005338   26.98  0.001309  ( 0.015757 -0.014229  0.029299)
 51:   1290.41   0.001044    5.28  0.000253  (-0.009041  0.013013 -0.001216)
 52:   1318.61   0.011413   57.67  0.002701  ( 0.025980 -0.005486  0.044675)
 53:   1372.96   0.001090    5.51  0.000248  (-0.010285 -0.008216  0.008632)
 54:   1378.53   0.010890   55.03  0.002465  (-0.002331 -0.024057  0.043370)
 55:   1396.08   0.003624   18.31  0.000810  ( 0.026436 -0.009660  0.004227)
 56:   1408.28   0.001238    6.26  0.000274  (-0.004804 -0.002781  0.015603)
 57:   1450.95   0.004169   21.07  0.000897  (-0.026588  0.011717  0.007240)
 58:   1462.46   0.005335   26.96  0.001138  (-0.001636 -0.012080 -0.031461)
 59:   1473.44   0.009570   48.36  0.002027  (-0.015205  0.001247 -0.042356)
 60:   1490.64   0.003595   18.17  0.000753  (-0.010188  0.017958 -0.018063)
 61:   1503.01   0.011019   55.69  0.002288  ( 0.031500  0.000696  0.035988)
 62:   1513.50   0.009149   46.24  0.001886  ( 0.019359 -0.021245  0.032562)
 63:   1537.45   0.076380  385.99  0.015503  (-0.092185  0.014105 -0.082500)
 64:   1586.07   0.040353  203.93  0.007940  ( 0.069977 -0.028716  0.047097)
 65:   1770.98   0.065534  331.18  0.011548  ( 0.052465 -0.002882 -0.093738)
 66:   1791.61   0.029893  151.07  0.005207  ( 0.069973 -0.008106 -0.015646)
 67:   1857.09   0.072508  366.43  0.012184  (-0.105273  0.026186  0.020397)
 68:   3069.32   0.004309   21.78  0.000438  (-0.013136  0.013695 -0.008830)
 69:   3078.26   0.008622   43.57  0.000874  (-0.018452  0.010543 -0.020552)
 70:   3081.76   0.000613    3.10  0.000062  (-0.002212 -0.007390 -0.001603)
 71:   3085.86   0.000942    4.76  0.000095  ( 0.007481  0.005486 -0.003035)
 72:   3145.29   0.002480   12.53  0.000246  (-0.006895 -0.013977 -0.001782)
 73:   3154.61   0.000178    0.90  0.000018  ( 0.001428  0.001259 -0.003740)
 74:   3166.64   0.000647    3.27  0.000064  (-0.006174 -0.000889  0.004985)
 75:   3192.30   0.000024    0.12  0.000002  (-0.001518 -0.000095 -0.000021)
 76:   3193.47   0.000794    4.02  0.000078  ( 0.001490 -0.001164  0.008606)
 77:   3234.90   0.000428    2.17  0.000041  ( 0.006225 -0.001598 -0.000158)
 78:   3614.29   0.022198  112.18  0.001917  ( 0.005206  0.004704 -0.043213)
 79:   3647.72   0.008587   43.40  0.000735  ( 0.023224 -0.001864 -0.013850)
 80:   3803.96   0.020199  102.08  0.001657  (-0.013492  0.009505 -0.037211)

--------------------------
THERMOCHEMISTRY AT 298.15K
--------------------------

Temperature         ... 298.15 K
Pressure            ... 1.00 atm
Total Mass          ... 201.20 AMU

Throughout the following assumptions are being made:
  (1) The electronic state is orbitally nondegenerate
      but the spin degeneracy is treated
  (2) There are no thermally accessible electronically excited states
  (3) Hindered rotations indicated by low frequency modes are not
      treated as such but are treated as vibrations and this may
      cause some error
  (4) All equations used are the standard statistical mechanics
      equations for an ideal gas
  (5) All vibrations are strictly harmonic

freq.      46.43  E(vib)   ...       0.53
freq.      71.59  E(vib)   ...       0.50
freq.      83.80  E(vib)   ...       0.48
freq.      94.31  E(vib)   ...       0.47
freq.     112.68  E(vib)   ...       0.45
freq.     123.34  E(vib)   ...       0.43
freq.     129.13  E(vib)   ...       0.43
freq.     135.15  E(vib)   ...       0.42
freq.     139.67  E(vib)   ...       0.42
freq.     162.87  E(vib)   ...       0.39
freq.     240.50  E(vib)   ...       0.31
freq.     264.47  E(vib)   ...       0.29
freq.     297.31  E(vib)   ...       0.27
freq.     307.02  E(vib)   ...       0.26
freq.     385.44  E(vib)   ...       0.20
freq.     423.18  E(vib)   ...       0.18
freq.     447.77  E(vib)   ...       0.17
freq.     475.45  E(vib)   ...       0.15
freq.     502.87  E(vib)   ...       0.14
freq.     530.30  E(vib)   ...       0.13
freq.     544.31  E(vib)   ...       0.12
freq.     578.03  E(vib)   ...       0.11
freq.     593.68  E(vib)   ...       0.10
freq.     626.94  E(vib)   ...       0.09
freq.     653.31  E(vib)   ...       0.08
freq.     726.25  E(vib)   ...       0.06
freq.     746.86  E(vib)   ...       0.06
freq.     807.46  E(vib)   ...       0.05
freq.     882.43  E(vib)   ...       0.04
freq.     898.42  E(vib)   ...       0.03
freq.     925.40  E(vib)   ...       0.03
freq.     971.61  E(vib)   ...       0.03
freq.    1016.23  E(vib)   ...       0.02
freq.    1026.96  E(vib)   ...       0.02
freq.    1063.81  E(vib)   ...       0.02
freq.    1078.31  E(vib)   ...       0.02
freq.    1129.04  E(vib)   ...       0.01
freq.    1160.14  E(vib)   ...       0.01
freq.    1178.38  E(vib)   ...       0.01
freq.    1181.03  E(vib)   ...       0.01
freq.    1209.21  E(vib)   ...       0.01
freq.    1237.00  E(vib)   ...       0.01
freq.    1248.53  E(vib)   ...       0.01
freq.    1272.41  E(vib)   ...       0.01
freq.    1290.41  E(vib)   ...       0.01
freq.    1318.61  E(vib)   ...       0.01
freq.    1372.96  E(vib)   ...       0.01
freq.    1378.53  E(vib)   ...       0.01
freq.    1396.08  E(vib)   ...       0.00
freq.    1408.28  E(vib)   ...       0.00
freq.    1450.95  E(vib)   ...       0.00
freq.    1462.46  E(vib)   ...       0.00
freq.    1473.44  E(vib)   ...       0.00
freq.    1490.64  E(vib)   ...       0.00
freq.    1503.01  E(vib)   ...       0.00
freq.    1513.50  E(vib)   ...       0.00
freq.    1537.45  E(vib)   ...       0.00
freq.    1586.07  E(vib)   ...       0.00
freq.    1770.98  E(vib)   ...       0.00
freq.    1791.61  E(vib)   ...       0.00
freq.    1857.09  E(vib)   ...       0.00
freq.    3069.32  E(vib)   ...       0.00
freq.    3078.26  E(vib)   ...       0.00
freq.    3081.76  E(vib)   ...       0.00
freq.    3085.86  E(vib)   ...       0.00
freq.    3145.29  E(vib)   ...       0.00
freq.    3154.61  E(vib)   ...       0.00
freq.    3166.64  E(vib)   ...       0.00
freq.    3192.30  E(vib)   ...       0.00
freq.    3193.47  E(vib)   ...       0.00
freq.    3234.90  E(vib)   ...       0.00
freq.    3614.29  E(vib)   ...       0.00
freq.    3647.72  E(vib)   ...       0.00
freq.    3803.96  E(vib)   ...       0.00

------------
INNER ENERGY
------------

The inner energy is: U= E(el) + E(ZPE) + E(vib) + E(rot) + E(trans)
    E(el)   - is the total energy from the electronic structure calculation
              = E(kin-el) + E(nuc-el) + E(el-el) + E(nuc-nuc)
    E(ZPE)  - the the zero temperature vibrational energy from the frequency calculation
    E(vib)  - the the finite temperature correction to E(ZPE) due to population
              of excited vibrational states
    E(rot)  - is the rotational thermal energy
    E(trans)- is the translational thermal energy

Summary of contributions to the inner energy U:
Electronic energy                ...   -723.07541151 Eh
Zero point energy                ...      0.21824733 Eh     136.95 kcal/mol
Thermal vibrational correction   ...      0.01216481 Eh       7.63 kcal/mol
Thermal rotational correction    ...      0.00141627 Eh       0.89 kcal/mol
Thermal translational correction ...      0.00141627 Eh       0.89 kcal/mol
-----------------------------------------------------------------------
Total thermal energy                   -722.84216682 Eh

Summary of corrections to the electronic energy:
(perhaps to be used in another calculation)
Total thermal correction                  0.01499736 Eh       9.41 kcal/mol
Non-thermal (ZPE) correction              0.21824733 Eh     136.95 kcal/mol
-----------------------------------------------------------------------
Total correction                          0.23324469 Eh     146.36 kcal/mol

--------
ENTHALPY
--------

The enthalpy is H = U + kB*T
                kB is Boltzmann's constant
Total free energy                 ...   -722.84216682 Eh
Thermal Enthalpy correction       ...      0.00094421 Eh       0.59 kcal/mol
-----------------------------------------------------------------------
Total Enthalpy                    ...   -722.84122261 Eh

Note: Only C1 symmetry has been detected, increase convergence thresholds
      if your molecule has a higher symmetry. Symmetry factor of 1.0 is
      used for the rotational entropy correction.

Note: Rotational entropy computed according to Herzberg
Infrared and Raman Spectra, Chapter V,1, Van Nostrand Reinhold, 1945
Point Group:  C1, Symmetry Number:   1
Rotational constants in cm-1:     0.036601     0.014935     0.012490

Vibrational entropy computed according to the QRRHO of S. Grimme
Chem.Eur.J. 2012 18 9955

-------
ENTROPY
-------

The entropy contributions are T*S = T*(S(el)+S(vib)+S(rot)+S(trans))
     S(el)   - electronic entropy
     S(vib)  - vibrational entropy
     S(rot)  - rotational entropy
     S(trans)- translational entropy
The entropies will be listed as multiplied by the temperature to get
units of energy

                             ****ORCA TERMINATED NORMALLY****
TOTAL RUN TIME: 0 days 0 hours 51 minutes 3 seconds 192 msec
