                         Program Version 5.0.4 -  RELEASE  -
|  1> ! B3LYP EPR-II OPT
|  2> %pal nprocs 16 end
|  3> *XYZFile 0 2 model.xyz
|  4>
|  5>                          ****END OF INPUT****
 Total Charge           Charge          ....    0
 Multiplicity           Mult            ....    2
 Number of Electrons    NEL             ....  107
FINAL SINGLE POINT ENERGY      -722.836121779548
FINAL SINGLE POINT ENERGY      -722.838056251558
FINAL SINGLE POINT ENERGY      -722.838159896163
FINAL SINGLE POINT ENERGY      -722.838182187511
FINAL SINGLE POINT ENERGY      -722.838193475103
FINAL SINGLE POINT ENERGY      -722.838189199762
FINAL SINGLE POINT ENERGY      -722.838182806326
FINAL SINGLE POINT ENERGY      -722.838198474827
FINAL SINGLE POINT ENERGY      -722.838216025441
FINAL SINGLE POINT ENERGY      -722.838226049901
FINAL SINGLE POINT ENERGY      -722.840184886907
FINAL SINGLE POINT ENERGY      -722.840226414145
FINAL SINGLE POINT ENERGY      -722.840290544910
FINAL SINGLE POINT ENERGY      -722.840356396693
FINAL SINGLE POINT ENERGY      -722.840392862682
FINAL SINGLE POINT ENERGY      -722.840400647278
FINAL SINGLE POINT ENERGY      -722.840405479620
FINAL SINGLE POINT ENERGY      -722.840409526278
FINAL SINGLE POINT ENERGY      -722.840411686889
                    ***********************HURRAY********************

CARTESIAN COORDINATES (ANGSTROEM)
---------------------------------
  N     -4.130930   -4.512757   -0.658838
  C     -2.691215   -4.637412   -0.482982
  C     -2.442690   -4.772966    1.044244
  O     -3.241304   -4.317106    1.862989
  C     -1.907103   -3.459516   -1.019021
  C     -2.357872   -2.042572   -0.787855
  H     -3.000406   -1.965076    0.091701
  H     -1.487063   -1.388317   -0.657874
  C     -3.157355   -1.506927   -1.981090
  O     -2.364091   -1.294006   -3.061234
  O     -4.353070   -1.298033   -1.992664
  H     -4.655229   -4.252099    0.166219
  H     -2.345958   -5.542344   -0.995444
  C     -4.711857   -4.570741   -1.898003
  N     -1.276240   -5.391733    1.380281
  H     -2.950481   -1.025083   -3.787039
  H     -0.681112   -5.715298    0.632632
  O     -4.055441   -4.808665   -2.912449
  C     -6.209074   -4.296571   -1.936846
  H     -6.349268   -3.254204   -2.240573
  H     -6.665892   -4.941586   -2.689552
  H     -6.697174   -4.449074   -0.970306
  C     -0.813293   -5.531839    2.756829
  H     -0.597763   -6.579943    2.986371
  H      0.087335   -4.933494    2.933543
  H     -1.607738   -5.177528    3.413784
  H     -1.072794   -3.643545   -1.688766

 Multiplicity           Mult            ....    2
 Number of Electrons    NEL             ....  107
 Basis Dimension        Dim             ....  329

ORBITAL ENERGIES
----------------
                 SPIN UP ORBITALS
  NO   OCC          E(Eh)            E(eV)
   0   1.0000     -19.193110      -522.2711
   1   1.0000     -19.141055      -520.8546
   2   1.0000     -19.128580      -520.5151
   3   1.0000     -19.101174      -519.7694
   4   1.0000     -14.377991      -391.2450
   5   1.0000     -14.351622      -390.5275
   6   1.0000     -10.333528      -281.1896
   7   1.0000     -10.311050      -280.5779
   8   1.0000     -10.287378      -279.9338
   9   1.0000     -10.250831      -278.9393
  10   1.0000     -10.229089      -278.3477
  11   1.0000     -10.218463      -278.0585
  12   1.0000     -10.213156      -277.9141
  13   1.0000     -10.179618      -277.0015
  14   1.0000      -1.108773       -30.1712
  15   1.0000      -1.051681       -28.6177
  16   1.0000      -1.023627       -27.8543
  17   1.0000      -1.019097       -27.7310
  18   1.0000      -0.937597       -25.5133
  19   1.0000      -0.920054       -25.0359
  20   1.0000      -0.809802       -22.0358
  21   1.0000      -0.760712       -20.7000
  22   1.0000      -0.727284       -19.7904
  23   1.0000      -0.700646       -19.0655
  24   1.0000      -0.640897       -17.4397
  25   1.0000      -0.607093       -16.5198
  26   1.0000      -0.601650       -16.3717
  27   1.0000      -0.569729       -15.5031
  28   1.0000      -0.538574       -14.6553
  29   1.0000      -0.503533       -13.7018
  30   1.0000      -0.494758       -13.4631
  31   1.0000      -0.483280       -13.1507
  32   1.0000      -0.477618       -12.9966
  33   1.0000      -0.473733       -12.8909
  34   1.0000      -0.462248       -12.5784
  35   1.0000      -0.454904       -12.3786
  36   1.0000      -0.446533       -12.1508
  37   1.0000      -0.432784       -11.7766
  38   1.0000      -0.417526       -11.3614
  39   1.0000      -0.405796       -11.0423
  40   1.0000      -0.402760       -10.9597
  41   1.0000      -0.398411       -10.8413
  42   1.0000      -0.397389       -10.8135
  43   1.0000      -0.387915       -10.5557
  44   1.0000      -0.377282       -10.2664
  45   1.0000      -0.375761       -10.2250
  46   1.0000      -0.346656        -9.4330
  47   1.0000      -0.325698        -8.8627
  48   1.0000      -0.296570        -8.0701
  49   1.0000      -0.282368        -7.6836
  50   1.0000      -0.274872        -7.4796
  51   1.0000      -0.256037        -6.9671
  52   1.0000      -0.247034        -6.7221
  53   1.0000      -0.206618        -5.6223
  54   0.0000      -0.002647        -0.0720
  55   0.0000       0.007415         0.2018
  56   0.0000       0.009331         0.2539
  57   0.0000       0.024768         0.6740
  58   0.0000       0.028203         0.7675

                 SPIN DOWN ORBITALS
  NO   OCC          E(Eh)            E(eV)
   0   1.0000     -19.192953      -522.2668
   1   1.0000     -19.140712      -520.8452
   2   1.0000     -19.128228      -520.5056
   3   1.0000     -19.101017      -519.7651
   4   1.0000     -14.377622      -391.2350
   5   1.0000     -14.350836      -390.5061
   6   1.0000     -10.332223      -281.1541
   7   1.0000     -10.310123      -280.5527
   8   1.0000     -10.287338      -279.9327
   9   1.0000     -10.251676      -278.9623
  10   1.0000     -10.229102      -278.3480
  11   1.0000     -10.213995      -277.9369
  12   1.0000     -10.204749      -277.6853
  13   1.0000     -10.179548      -276.9996
  14   1.0000      -1.108080       -30.1524
  15   1.0000      -1.050778       -28.5931
  16   1.0000      -1.023169       -27.8419
  17   1.0000      -1.018400       -27.7121
  18   1.0000      -0.936751       -25.4903
  19   1.0000      -0.918011       -24.9804
  20   1.0000      -0.797077       -21.6896
  21   1.0000      -0.758844       -20.6492
  22   1.0000      -0.726815       -19.7776
  23   1.0000      -0.695960       -18.9380
  24   1.0000      -0.630996       -17.1703
  25   1.0000      -0.602309       -16.3897
  26   1.0000      -0.600465       -16.3395
  27   1.0000      -0.563618       -15.3368
  28   1.0000      -0.535141       -14.5619
  29   1.0000      -0.500743       -13.6259
  30   1.0000      -0.491604       -13.3772
  31   1.0000      -0.480320       -13.0702
  32   1.0000      -0.475833       -12.9481
  33   1.0000      -0.471470       -12.8294
  34   1.0000      -0.460651       -12.5349
  35   1.0000      -0.453734       -12.3467
  36   1.0000      -0.444893       -12.1061
  37   1.0000      -0.431762       -11.7488
  38   1.0000      -0.415310       -11.3012
  39   1.0000      -0.405532       -11.0351
  40   1.0000      -0.399653       -10.8751
  41   1.0000      -0.396565       -10.7911
  42   1.0000      -0.395849       -10.7716
  43   1.0000      -0.386988       -10.5305
  44   1.0000      -0.374908       -10.2018
  45   1.0000      -0.372661       -10.1406
  46   1.0000      -0.344902        -9.3853
  47   1.0000      -0.325007        -8.8439
  48   1.0000      -0.286159        -7.7868
  49   1.0000      -0.279991        -7.6189
  50   1.0000      -0.272873        -7.4253
  51   1.0000      -0.253539        -6.8991
  52   1.0000      -0.245493        -6.6802
  53   0.0000      -0.075085        -2.0432
  54   0.0000       0.000472         0.0128
  55   0.0000       0.008989         0.2446
  56   0.0000       0.013202         0.3592
  57   0.0000       0.027551         0.7497

MULLIKEN ATOMIC CHARGES AND SPIN POPULATIONS
--------------------------------------------
   0 N :   -0.124317    0.023618
   1 C :   -0.123488   -0.055150
   2 C :    0.083002    0.024430
   3 O :   -0.325337    0.012468
   4 C :   -0.071770    0.983092
   5 C :   -0.312232   -0.053372
   6 H :    0.182025    0.006448
   7 H :    0.156911    0.022832
   8 C :    0.147693    0.033614
   9 O :   -0.245578    0.004191
  10 O :   -0.253569    0.012270
  11 H :    0.253480   -0.000900
  12 H :    0.161205    0.008894
  13 C :    0.182001    0.001072
  14 N :   -0.090787    0.016556
  15 H :    0.289468    0.001329
  16 H :    0.231676   -0.000256
  17 O :   -0.325407    0.004060
  18 C :   -0.551554    0.002641
  19 H :    0.205395    0.000525
  20 H :    0.180444   -0.000170
  21 H :    0.148134   -0.000128
  22 C :   -0.455775   -0.001081
  23 H :    0.163586    0.000184
  24 H :    0.165467    0.001411
  25 H :    0.199612    0.000517
  26 H :    0.129717   -0.049094
Sum of atomic charges         :    0.0000000

LOEWDIN ATOMIC CHARGES AND SPIN POPULATIONS
-------------------------------------------
   0 N :    0.059997    0.022311
   1 C :   -0.057870    0.013589
   2 C :   -0.088924    0.031868
   3 O :   -0.190747    0.012212
   4 C :   -0.008212    0.790549
   5 C :   -0.040936    0.011624
   6 H :    0.069847    0.004697
   7 H :    0.065580    0.017367
   8 C :   -0.080538    0.041159
   9 O :    0.023215    0.003799
  10 O :   -0.140701    0.011495
  11 H :    0.092634    0.000283
  12 H :    0.066769    0.004338
  13 C :   -0.098282    0.003681
  14 N :    0.045557    0.014059
  15 H :    0.104041    0.001148
  16 H :    0.080735    0.000330
  17 O :   -0.188365    0.004139
  18 C :   -0.042781    0.002376
  19 H :    0.063472    0.000418
  20 H :    0.051873   -0.000048
  21 H :    0.036195   -0.000015
  22 C :    0.012782    0.000400
  23 H :    0.032510    0.000187
  24 H :    0.032427    0.000898
  25 H :    0.055006    0.000292
  26 H :    0.044716    0.006841

  Mayer bond orders larger than 0.100000
B(  0-N ,  1-C ) :   1.0250 B(  0-N , 11-H ) :   0.8908 B(  0-N , 13-C ) :   1.2153
B(  1-C ,  2-C ) :   0.8718 B(  1-C ,  4-C ) :   1.0015 B(  1-C , 12-H ) :   0.9695
B(  1-C , 17-O ) :   0.1231 B(  2-C ,  3-O ) :   1.8691 B(  2-C , 14-N ) :   1.2016
B(  4-C ,  5-C ) :   0.9813 B(  4-C , 26-H ) :   0.9662 B(  5-C ,  6-H ) :   0.9764
B(  5-C ,  7-H ) :   0.9530 B(  5-C ,  8-C ) :   0.8808 B(  8-C ,  9-O ) :   1.1445
B(  8-C , 10-O ) :   1.9459 B(  9-O , 15-H ) :   0.8930 B( 13-C , 17-O ) :   1.8558
B( 13-C , 18-C ) :   0.8869 B( 14-N , 16-H ) :   0.9306 B( 14-N , 22-C ) :   0.9689
B( 18-C , 19-H ) :   0.9466 B( 18-C , 20-H ) :   0.9639 B( 18-C , 21-H ) :   0.9739
B( 22-C , 23-H ) :   0.9607 B( 22-C , 24-H ) :   0.9571 B( 22-C , 25-H ) :   0.9438

FINAL SINGLE POINT ENERGY      -722.840414781531

DIPOLE MOMENT
-------------
                                X             Y             Z
Electronic contribution:     -1.13727       3.74270      -5.18486
Nuclear contribution   :      2.50036      -4.12341       5.94352
                        -----------------------------------------
Total Dipole Moment    :      1.36309      -0.38071       0.75865
                        -----------------------------------------
Magnitude (a.u.)       :      1.60577
Magnitude (Debye)      :      4.08155

Rotational constants in cm-1:     0.031849     0.014570     0.011909
Rotational constants in MHz :   954.799966   436.789126   357.008386

                             ****ORCA TERMINATED NORMALLY****
TOTAL RUN TIME: 0 days 0 hours 40 minutes 48 seconds 79 msec
