                         Program Version 5.0.4 -  RELEASE  -
|  1> ! B3LYP EPR-II AUTOAUX
|  2> %pal nprocs 16 end
|  3> *XYZFile 1 2 opt.xyz
|  4> %EPRNMR
|  5>         GTENSOR   TRUE
|  6>         NUCLEI    = 1,9,10,11,12,13,14,15,16,21,30,31,32,33 {SHIFT, AISO, ADIP, AORB}
|  7>         ORI       GIAO
|  8> END
|  9>
| 10>                          ****END OF INPUT****

CARTESIAN COORDINATES (ANGSTROEM)
---------------------------------
  N     -7.617007    1.396341    0.277124
  C     -6.205451    1.039096    0.320010
  C     -5.931516    0.601314    1.782111
  O     -6.678094    0.966066    2.691871
  C     -5.230104    2.172376   -0.123952
  C     -5.442865    3.504999    0.532471
  C     -5.317105    4.772726   -0.273989
  C     -6.615867    5.022412   -1.067350
  N     -6.421660    6.141925   -2.105940
  H     -4.482214    4.673466   -0.986486
  H     -5.102034    5.630223    0.374715
  H     -7.431767    5.352471   -0.420951
  H     -6.935160    4.136994   -1.625039
  H     -7.279673    6.301753   -2.642450
  H     -5.682580    5.887990   -2.768438
  H     -8.091157    1.285418    1.167062
  C     -8.287364    1.897149   -0.792328
  N     -4.820747   -0.158875    1.963668
  H     -4.334967   -0.500495    1.147300
  O     -7.727554    2.208821   -1.856738
  H     -6.151776    7.025404   -1.663064
  C     -4.408429   -0.666525    3.274031
  H     -4.648147   -1.729638    3.376508
  H     -3.333115   -0.524702    3.408990
  H     -4.947479   -0.109324    4.039703
  C     -9.793460    2.039195   -0.614021
  H    -10.115668    3.010242   -0.997358
  H    -10.280246    1.270936   -1.223099
  H    -10.122553    1.923795    0.421361
  H     -6.025092    0.188048   -0.350467
  H     -4.207577    1.816499    0.084528
  H     -5.311112    2.268413   -1.209837
  H     -5.647481    3.568910    1.597015

 Total Charge           Charge          ....    1
 Multiplicity           Mult            ....    2
 Number of Electrons    NEL             ....  109
 Basis Dimension        Dim             ....  371

ORBITAL ENERGIES
----------------
                 SPIN UP ORBITALS
  NO   OCC          E(Eh)            E(eV)
   0   1.0000     -19.215186      -522.8718
   1   1.0000     -19.212044      -522.7863
   2   1.0000     -14.631535      -398.1443
   3   1.0000     -14.463343      -393.5676
   4   1.0000     -14.458819      -393.4445
   5   1.0000     -10.403781      -283.1013
   6   1.0000     -10.398944      -282.9697
   7   1.0000     -10.398275      -282.9514
   8   1.0000     -10.350766      -281.6587
   9   1.0000     -10.350426      -281.6494
  10   1.0000     -10.328700      -281.0582
  11   1.0000     -10.312057      -280.6053
  12   1.0000     -10.303261      -280.3660
  13   1.0000     -10.284970      -279.8683
  14   1.0000      -1.177633       -32.0450
  15   1.0000      -1.141077       -31.0503
  16   1.0000      -1.130218       -30.7548
  17   1.0000      -1.025525       -27.9060
  18   1.0000      -1.022072       -27.8120
  19   1.0000      -0.953271       -25.9398
  20   1.0000      -0.897730       -24.4285
  21   1.0000      -0.851294       -23.1649
  22   1.0000      -0.823489       -22.4083
  23   1.0000      -0.804616       -21.8947
  24   1.0000      -0.772907       -21.0319
  25   1.0000      -0.764990       -20.8164
  26   1.0000      -0.753551       -20.5052
  27   1.0000      -0.708155       -19.2699
  28   1.0000      -0.689869       -18.7723
  29   1.0000      -0.669203       -18.2099
  30   1.0000      -0.658459       -17.9176
  31   1.0000      -0.636712       -17.3258
  32   1.0000      -0.616715       -16.7817
  33   1.0000      -0.591224       -16.0880
  34   1.0000      -0.577248       -15.7077
  35   1.0000      -0.568960       -15.4822
  36   1.0000      -0.556437       -15.1414
  37   1.0000      -0.549109       -14.9420
  38   1.0000      -0.546756       -14.8780
  39   1.0000      -0.538024       -14.6404
  40   1.0000      -0.530777       -14.4432
  41   1.0000      -0.524475       -14.2717
  42   1.0000      -0.509222       -13.8566
  43   1.0000      -0.498748       -13.5716
  44   1.0000      -0.496064       -13.4986
  45   1.0000      -0.488245       -13.2858
  46   1.0000      -0.481904       -13.1133
  47   1.0000      -0.473395       -12.8817
  48   1.0000      -0.466352       -12.6901
  49   1.0000      -0.450940       -12.2707
  50   1.0000      -0.367299        -9.9947
  51   1.0000      -0.365195        -9.9375
  52   1.0000      -0.358626        -9.7587
  53   1.0000      -0.352402        -9.5893
  54   1.0000      -0.324965        -8.8428
  55   0.0000      -0.172774        -4.7014
  56   0.0000      -0.103155        -2.8070
  57   0.0000      -0.099275        -2.7014
  58   0.0000      -0.093237        -2.5371
  59   0.0000      -0.078687        -2.1412

                 SPIN DOWN ORBITALS
  NO   OCC          E(Eh)            E(eV)
   0   1.0000     -19.215161      -522.8711
   1   1.0000     -19.212028      -522.7859
   2   1.0000     -14.631279      -398.1373
   3   1.0000     -14.463332      -393.5673
   4   1.0000     -14.458784      -393.4435
   5   1.0000     -10.402313      -283.0613
   6   1.0000     -10.398941      -282.9696
   7   1.0000     -10.398293      -282.9519
   8   1.0000     -10.351718      -281.6846
   9   1.0000     -10.349829      -281.6332
  10   1.0000     -10.314806      -280.6801
  11   1.0000     -10.312900      -280.6283
  12   1.0000     -10.303260      -280.3660
  13   1.0000     -10.284972      -279.8683
  14   1.0000      -1.176915       -32.0255
  15   1.0000      -1.141006       -31.0483
  16   1.0000      -1.130175       -30.7536
  17   1.0000      -1.025156       -27.8959
  18   1.0000      -1.022007       -27.8102
  19   1.0000      -0.944415       -25.6988
  20   1.0000      -0.894118       -24.3302
  21   1.0000      -0.843816       -22.9614
  22   1.0000      -0.822293       -22.3757
  23   1.0000      -0.803877       -21.8746
  24   1.0000      -0.769643       -20.9431
  25   1.0000      -0.764628       -20.8066
  26   1.0000      -0.752679       -20.4815
  27   1.0000      -0.697699       -18.9854
  28   1.0000      -0.688522       -18.7356
  29   1.0000      -0.664516       -18.0824
  30   1.0000      -0.654992       -17.8232
  31   1.0000      -0.635853       -17.3025
  32   1.0000      -0.615013       -16.7354
  33   1.0000      -0.588914       -16.0252
  34   1.0000      -0.576542       -15.6885
  35   1.0000      -0.567321       -15.4376
  36   1.0000      -0.549579       -14.9548
  37   1.0000      -0.547942       -14.9103
  38   1.0000      -0.543776       -14.7969
  39   1.0000      -0.535305       -14.5664
  40   1.0000      -0.528368       -14.3776
  41   1.0000      -0.521464       -14.1897
  42   1.0000      -0.507017       -13.7966
  43   1.0000      -0.496647       -13.5145
  44   1.0000      -0.494614       -13.4591
  45   1.0000      -0.486754       -13.2453
  46   1.0000      -0.481418       -13.1000
  47   1.0000      -0.470476       -12.8023
  48   1.0000      -0.465056       -12.6548
  49   1.0000      -0.450128       -12.2486
  50   1.0000      -0.366687        -9.9780
  51   1.0000      -0.365046        -9.9334
  52   1.0000      -0.358377        -9.7519
  53   1.0000      -0.352238        -9.5849
  54   0.0000      -0.184093        -5.0094
  55   0.0000      -0.172506        -4.6941
  56   0.0000      -0.102339        -2.7848
  57   0.0000      -0.098851        -2.6899
  58   0.0000      -0.091223        -2.4823

MULLIKEN ATOMIC CHARGES AND SPIN POPULATIONS
--------------------------------------------
   0 N :   -0.086835    0.003821
   1 C :   -0.085286    0.022436
   2 C :    0.067952   -0.003360
   3 O :   -0.319824    0.001545
   4 C :   -0.285135   -0.057774
   5 C :   -0.084486    0.996049
   6 C :   -0.316976   -0.049879
   7 C :   -0.242246    0.049967
   8 N :   -0.385347    0.007760
   9 H :    0.157731    0.022554
  10 H :    0.163300    0.005052
  11 H :    0.206362   -0.002199
  12 H :    0.251601   -0.002360
  13 H :    0.335090    0.000341
  14 H :    0.332431    0.000106
  15 H :    0.261660    0.000377
  16 C :    0.161648   -0.002576
  17 N :   -0.097017    0.001593
  18 H :    0.236208    0.000081
  19 O :   -0.371462    0.000078
  20 H :    0.329770   -0.000286
  21 C :   -0.443893   -0.000084
  22 H :    0.181703    0.000006
  23 H :    0.167582   -0.000002
  24 H :    0.201628    0.000033
  25 C :   -0.531433    0.000721
  26 H :    0.166604   -0.000018
  27 H :    0.203981   -0.000002
  28 H :    0.161977    0.000013
  29 H :    0.167729   -0.000314
  30 H :    0.156105    0.047505
  31 H :    0.171459    0.006988
  32 H :    0.167419   -0.048171
Sum of atomic charges         :    1.0000000

LOEWDIN ATOMIC CHARGES AND SPIN POPULATIONS
-------------------------------------------
   0 N :    0.077892    0.002670
   1 C :   -0.032264    0.021400
   2 C :   -0.100947    0.000274
   3 O :   -0.182951    0.000964
   4 C :   -0.064403    0.008158
   5 C :   -0.012826    0.817072
   6 C :   -0.082661    0.014239
   7 C :    0.025420    0.049199
   8 N :    0.339744    0.007041
   9 H :    0.057492    0.018341
  10 H :    0.054587    0.003141
  11 H :    0.059638   -0.000016
  12 H :    0.074218    0.000288
  13 H :    0.124496    0.001027
  14 H :    0.125017    0.000288
  15 H :    0.098768    0.000675
  16 C :   -0.099041    0.001386
  17 N :    0.049658    0.000737
  18 H :    0.082188    0.000281
  19 O :   -0.237225    0.000648
  20 H :    0.122111    0.000093
  21 C :    0.024928    0.000020
  22 H :    0.038805    0.000006
  23 H :    0.036586   -0.000001
  24 H :    0.055735    0.000022
  25 C :   -0.032621    0.000070
  26 H :    0.049111   -0.000004
  27 H :    0.064696   -0.000007
  28 H :    0.041022    0.000022
  29 H :    0.065175    0.000087
  30 H :    0.063946    0.039382
  31 H :    0.059314    0.006226
  32 H :    0.054394    0.006269

  Mayer bond orders larger than 0.100000
B(  0-N ,  1-C ) :   1.0212 B(  0-N , 15-H ) :   0.8846 B(  0-N , 16-C ) :   1.2576
B(  1-C ,  2-C ) :   0.9065 B(  1-C ,  4-C ) :   0.9299 B(  1-C , 29-H ) :   0.9622
B(  2-C ,  3-O ) :   1.8699 B(  2-C , 17-N ) :   1.2140 B(  4-C ,  5-C ) :   1.0149
B(  4-C , 30-H ) :   0.9432 B(  4-C , 31-H ) :   0.9618 B(  5-C ,  6-C ) :   0.9971
B(  5-C , 32-H ) :   0.9686 B(  6-C ,  7-C ) :   0.9517 B(  6-C ,  9-H ) :   0.9682
B(  6-C , 10-H ) :   0.9572 B(  7-C ,  8-N ) :   0.8614 B(  7-C , 11-H ) :   0.9443
B(  7-C , 12-H ) :   0.8957 B(  8-N , 13-H ) :   0.8860 B(  8-N , 14-H ) :   0.8865
B(  8-N , 20-H ) :   0.8866 B( 16-C , 19-O ) :   1.7619 B( 16-C , 25-C ) :   0.9118
B( 17-N , 18-H ) :   0.9271 B( 17-N , 21-C ) :   0.9594 B( 21-C , 22-H ) :   0.9543
B( 21-C , 23-H ) :   0.9578 B( 21-C , 24-H ) :   0.9441 B( 25-C , 26-H ) :   0.9655
B( 25-C , 27-H ) :   0.9460 B( 25-C , 28-H ) :   0.9701

FINAL SINGLE POINT ENERGY      -668.594299870554

DIPOLE MOMENT
-------------
                                X             Y             Z
Electronic contribution:     -1.65601      -3.70759       0.47170
Nuclear contribution   :      2.69094       8.34783      -3.11176
                        -----------------------------------------
Total Dipole Moment    :      1.03493       4.64024      -2.64006
                        -----------------------------------------
Magnitude (a.u.)       :      5.43809
Magnitude (Debye)      :     13.82252

Rotational constants in cm-1:     0.030764     0.012645     0.010010
Rotational constants in MHz :   922.283276   379.090471   300.102318

CHEMICAL SHIELDING SUMMARY (ppm)  --  Orbital contribution
----------------------------------------------------------

  Nucleus  Element    Isotropic     Anisotropy
  -------  -------  ------------   ------------
      0       N          121.649        102.778
      8       N          213.881         23.030
      9       H           29.576          5.850
     10       H           28.995          7.032
     11       H           28.910          4.654
     12       H           26.659         13.902
     13       H           27.522         14.950
     14       H           27.887         12.783
     15       H           25.107          7.745
     20       H           27.976         14.040
     29       H           27.950          5.906
     30       H           29.179          6.851
     31       H           27.945          2.780
     32       H           26.717          6.253

                             ****ORCA TERMINATED NORMALLY****
TOTAL RUN TIME: 0 days 0 hours 7 minutes 33 seconds 185 msec
