                         Program Version 5.0.4 -  RELEASE  -
|  1> ! M062X def2-TZVP OPT FREQ
|  2> %pal nprocs 16 end
|  3> *XYZFile 1 2 opt.xyz
|  4>
|  5>                          ****END OF INPUT****
 Total Charge           Charge          ....    1
 Multiplicity           Mult            ....    2
 Number of Electrons    NEL             ....  109
FINAL SINGLE POINT ENERGY      -668.813925298659
FINAL SINGLE POINT ENERGY      -668.816179749795
FINAL SINGLE POINT ENERGY      -668.813149047307
FINAL SINGLE POINT ENERGY      -668.816795871072
FINAL SINGLE POINT ENERGY      -668.817051500834
FINAL SINGLE POINT ENERGY      -668.817229198828
FINAL SINGLE POINT ENERGY      -668.817244848805
FINAL SINGLE POINT ENERGY      -668.817248032517
FINAL SINGLE POINT ENERGY      -668.817251299620
                    ***********************HURRAY********************

CARTESIAN COORDINATES (ANGSTROEM)
---------------------------------
  N     -7.644351    1.385240    0.299546
  C     -6.247832    1.016752    0.310117
  C     -5.933206    0.601954    1.754533
  O     -6.654708    0.957752    2.666970
  C     -5.296190    2.148137   -0.133542
  C     -5.558833    3.446958    0.538007
  C     -5.381394    4.721236   -0.219742
  C     -6.567039    4.917852   -1.159937
  N     -6.341051    6.116027   -2.065570
  H     -4.459927    4.675474   -0.816130
  H     -5.295716    5.572451    0.459576
  H     -7.486168    5.116143   -0.611082
  H     -6.730937    4.056396   -1.806629
  H     -7.130213    6.255143   -2.700673
  H     -5.502255    5.980626   -2.634861
  H     -8.113657    1.274108    1.188536
  C     -8.298051    1.905664   -0.754661
  N     -4.809505   -0.117887    1.915665
  H     -4.333194   -0.453837    1.094754
  O     -7.738870    2.183840   -1.809819
  H     -6.212397    6.973563   -1.523537
  C     -4.353417   -0.572840    3.218139
  H     -4.566436   -1.632165    3.360826
  H     -3.282867   -0.403994    3.317532
  H     -4.882722   -0.002262    3.976048
  C     -9.780225    2.111411   -0.566068
  H    -10.060025    3.088242   -0.955645
  H    -10.301790    1.360573   -1.160445
  H    -10.096704    2.020340    0.470765
  H     -6.084438    0.166279   -0.358816
  H     -4.270693    1.814307    0.075283
  H     -5.378313    2.254929   -1.215691
  H     -5.833899    3.475011    1.583514

 Multiplicity           Mult            ....    2
 Number of Electrons    NEL             ....  109
 Basis Dimension        Dim             ....  548

ORBITAL ENERGIES
----------------
                 SPIN UP ORBITALS
  NO   OCC          E(Eh)            E(eV)
   0   1.0000     -19.698426      -536.0214
   1   1.0000     -19.695688      -535.9469
   2   1.0000     -15.051613      -409.5752
   3   1.0000     -14.876978      -404.8231
   4   1.0000     -14.873897      -404.7393
   5   1.0000     -10.756988      -292.7125
   6   1.0000     -10.747864      -292.4643
   7   1.0000     -10.747118      -292.4439
   8   1.0000     -10.700127      -291.1653
   9   1.0000     -10.699618      -291.1514
  10   1.0000     -10.678958      -290.5892
  11   1.0000     -10.661408      -290.1117
  12   1.0000     -10.655378      -289.9476
  13   1.0000     -10.635767      -289.4139
  14   1.0000      -1.293444       -35.1964
  15   1.0000      -1.275704       -34.7137
  16   1.0000      -1.264712       -34.4146
  17   1.0000      -1.142905       -31.1000
  18   1.0000      -1.138458       -30.9790
  19   1.0000      -1.063077       -28.9278
  20   1.0000      -1.003372       -27.3031
  21   1.0000      -0.950974       -25.8773
  22   1.0000      -0.922979       -25.1155
  23   1.0000      -0.899850       -24.4862
  24   1.0000      -0.862618       -23.4730
  25   1.0000      -0.845405       -23.0046
  26   1.0000      -0.837546       -22.7908
  27   1.0000      -0.793662       -21.5966
  28   1.0000      -0.776102       -21.1188
  29   1.0000      -0.754410       -20.5285
  30   1.0000      -0.739328       -20.1181
  31   1.0000      -0.719910       -19.5898
  32   1.0000      -0.693190       -18.8627
  33   1.0000      -0.676495       -18.4084
  34   1.0000      -0.661825       -18.0092
  35   1.0000      -0.646326       -17.5874
  36   1.0000      -0.633105       -17.2277
  37   1.0000      -0.629837       -17.1387
  38   1.0000      -0.627043       -17.0627
  39   1.0000      -0.614670       -16.7260
  40   1.0000      -0.601526       -16.3684
  41   1.0000      -0.598118       -16.2756
  42   1.0000      -0.583289       -15.8721
  43   1.0000      -0.572696       -15.5839
  44   1.0000      -0.566011       -15.4019
  45   1.0000      -0.558775       -15.2050
  46   1.0000      -0.548811       -14.9339
  47   1.0000      -0.542708       -14.7678
  48   1.0000      -0.539459       -14.6794
  49   1.0000      -0.523813       -14.2537
  50   1.0000      -0.442644       -12.0450
  51   1.0000      -0.438940       -11.9442
  52   1.0000      -0.433799       -11.8043
  53   1.0000      -0.418570       -11.3899
  54   1.0000      -0.380678       -10.3588
  55   0.0000      -0.140766        -3.8304
  56   0.0000      -0.079826        -2.1722
  57   0.0000      -0.076281        -2.0757
  58   0.0000      -0.059340        -1.6147
  59   0.0000      -0.051976        -1.4143

                 SPIN DOWN ORBITALS
  NO   OCC          E(Eh)            E(eV)
   0   1.0000     -19.698423      -536.0214
   1   1.0000     -19.695759      -535.9488
   2   1.0000     -15.051460      -409.5711
   3   1.0000     -14.876969      -404.8229
   4   1.0000     -14.873841      -404.7378
   5   1.0000     -10.755848      -292.6815
   6   1.0000     -10.747860      -292.4642
   7   1.0000     -10.747131      -292.4443
   8   1.0000     -10.700868      -291.1854
   9   1.0000     -10.699268      -291.1419
  10   1.0000     -10.672174      -290.4046
  11   1.0000     -10.662084      -290.1301
  12   1.0000     -10.655377      -289.9476
  13   1.0000     -10.635767      -289.4139
  14   1.0000      -1.292737       -35.1772
  15   1.0000      -1.275679       -34.7130
  16   1.0000      -1.264837       -34.4180
  17   1.0000      -1.142495       -31.0889
  18   1.0000      -1.138428       -30.9782
  19   1.0000      -1.051954       -28.6251
  20   1.0000      -0.999885       -27.2083
  21   1.0000      -0.942740       -25.6533
  22   1.0000      -0.920958       -25.0605
  23   1.0000      -0.898564       -24.4512
  24   1.0000      -0.859161       -23.3790
  25   1.0000      -0.844987       -22.9933
  26   1.0000      -0.835666       -22.7396
  27   1.0000      -0.783429       -21.3182
  28   1.0000      -0.773986       -21.0612
  29   1.0000      -0.747105       -20.3298
  30   1.0000      -0.734609       -19.9897
  31   1.0000      -0.718828       -19.5603
  32   1.0000      -0.690239       -18.7824
  33   1.0000      -0.673367       -18.3233
  34   1.0000      -0.661079       -17.9889
  35   1.0000      -0.644899       -17.5486
  36   1.0000      -0.631356       -17.1801
  37   1.0000      -0.628515       -17.1028
  38   1.0000      -0.615594       -16.7512
  39   1.0000      -0.610169       -16.6035
  40   1.0000      -0.598463       -16.2850
  41   1.0000      -0.594340       -16.1728
  42   1.0000      -0.580829       -15.8052
  43   1.0000      -0.569182       -15.4882
  44   1.0000      -0.564432       -15.3590
  45   1.0000      -0.557397       -15.1675
  46   1.0000      -0.548519       -14.9260
  47   1.0000      -0.541455       -14.7337
  48   1.0000      -0.535529       -14.5725
  49   1.0000      -0.522658       -14.2222
  50   1.0000      -0.442431       -12.0392
  51   1.0000      -0.438801       -11.9404
  52   1.0000      -0.433294       -11.7905
  53   1.0000      -0.418466       -11.3870
  54   0.0000      -0.142145        -3.8680
  55   0.0000      -0.139176        -3.7872
  56   0.0000      -0.081613        -2.2208
  57   0.0000      -0.076731        -2.0880
  58   0.0000      -0.060444        -1.6448

MULLIKEN ATOMIC CHARGES AND SPIN POPULATIONS
--------------------------------------------
   0 N :   -0.343193   -0.013060
   1 C :   -0.109142    0.042381
   2 C :    0.371025   -0.015854
   3 O :   -0.405846    0.000951
   4 C :   -0.337914   -0.083463
   5 C :   -0.170968    1.051665
   6 C :   -0.326324   -0.095022
   7 C :   -0.281730    0.070315
   8 N :   -0.345302    0.008488
   9 H :    0.189756    0.028567
  10 H :    0.184264    0.005333
  11 H :    0.215940   -0.007442
  12 H :    0.254987   -0.013545
  13 H :    0.340781    0.000121
  14 H :    0.331596   -0.000286
  15 H :    0.280993   -0.000584
  16 C :    0.368283    0.018839
  17 N :   -0.362368    0.001239
  18 H :    0.255209   -0.000331
  19 O :   -0.470003   -0.011262
  20 H :    0.330680   -0.000228
  21 C :   -0.309618    0.000072
  22 H :    0.164517   -0.000039
  23 H :    0.153890   -0.000026
  24 H :    0.184356    0.000023
  25 C :   -0.426464    0.001312
  26 H :    0.135789    0.000294
  27 H :    0.182746    0.000257
  28 H :    0.148833   -0.000020
  29 H :    0.205521   -0.000989
  30 H :    0.178651    0.051180
  31 H :    0.191818    0.002601
  32 H :    0.219236   -0.041488
Sum of atomic charges         :    1.0000000

LOEWDIN ATOMIC CHARGES AND SPIN POPULATIONS
-------------------------------------------
   0 N :    0.159590    0.004626
   1 C :   -0.231808    0.013592
   2 C :   -0.446986    0.000783
   3 O :    0.066114    0.000664
   4 C :   -0.251631    0.060152
   5 C :   -0.096682    0.746947
   6 C :   -0.284233    0.066348
   7 C :   -0.244169    0.040942
   8 N :    0.158164    0.006725
   9 H :    0.152456    0.016919
  10 H :    0.151299    0.001548
  11 H :    0.151535    0.000602
  12 H :    0.157964   -0.000117
  13 H :    0.217849    0.000494
  14 H :    0.216136    0.000046
  15 H :    0.204315    0.000577
  16 C :   -0.482307    0.005497
  17 N :    0.106833    0.000602
  18 H :    0.189561    0.000473
  19 O :    0.021658   -0.002430
  20 H :    0.214545   -0.000094
  21 C :   -0.288035    0.000026
  22 H :    0.122285   -0.000010
  23 H :    0.120546   -0.000009
  24 H :    0.135625    0.000016
  25 C :   -0.253456    0.000074
  26 H :    0.132210    0.000034
  27 H :    0.149708    0.000055
  28 H :    0.129669    0.000004
  29 H :    0.165432   -0.000156
  30 H :    0.156701    0.030909
  31 H :    0.152719    0.005610
  32 H :    0.146395   -0.001450

  Mayer bond orders larger than 0.100000
B(  0-N ,  1-C ) :   0.9340 B(  0-N , 15-H ) :   0.8784 B(  0-N , 16-C ) :   1.2445
B(  1-C ,  2-C ) :   0.9496 B(  1-C ,  4-C ) :   0.8869 B(  1-C , 29-H ) :   0.9827
B(  2-C ,  3-O ) :   1.8673 B(  2-C , 17-N ) :   1.2530 B(  4-C ,  5-C ) :   0.9335
B(  4-C , 30-H ) :   0.9312 B(  4-C , 31-H ) :   0.9824 B(  5-C ,  6-C ) :   0.9459
B(  5-C , 32-H ) :   0.9379 B(  6-C ,  7-C ) :   0.8855 B(  6-C ,  9-H ) :   0.9712
B(  6-C , 10-H ) :   0.9667 B(  7-C ,  8-N ) :   0.7962 B(  7-C , 11-H ) :   0.9634
B(  7-C , 12-H ) :   0.9315 B(  8-N , 13-H ) :   0.8775 B(  8-N , 14-H ) :   0.8792
B(  8-N , 20-H ) :   0.8806 B( 16-C , 19-O ) :   1.7897 B( 16-C , 25-C ) :   0.9346
B( 17-N , 18-H ) :   0.9132 B( 17-N , 21-C ) :   0.8943 B( 21-C , 22-H ) :   0.9680
B( 21-C , 23-H ) :   0.9642 B( 21-C , 24-H ) :   0.9608 B( 25-C , 26-H ) :   0.9581
B( 25-C , 27-H ) :   0.9490 B( 25-C , 28-H ) :   0.9849

FINAL SINGLE POINT ENERGY      -668.817253706666

DIPOLE MOMENT
-------------
                                X             Y             Z
Electronic contribution:     -1.77818      -3.88398       0.42471
Nuclear contribution   :      2.88156       8.57854      -3.09624
                        -----------------------------------------
Total Dipole Moment    :      1.10338       4.69456      -2.67153
                        -----------------------------------------
Magnitude (a.u.)       :      5.51302
Magnitude (Debye)      :     14.01299

VIBRATIONAL FREQUENCIES
-----------------------

Scaling factor for frequencies =  1.000000000  (already applied!)

   0:         0.00 cm**-1
   1:         0.00 cm**-1
   2:         0.00 cm**-1
   3:         0.00 cm**-1
   4:         0.00 cm**-1
   5:         0.00 cm**-1
   6:      -105.46 cm**-1 ***imaginary mode***
   7:       -15.04 cm**-1 ***imaginary mode***
   8:        24.20 cm**-1
   9:        33.73 cm**-1
  10:        56.59 cm**-1
  11:        72.21 cm**-1
  12:        79.05 cm**-1
  13:        98.11 cm**-1
  14:       117.14 cm**-1
  15:       138.24 cm**-1
  16:       174.47 cm**-1
  17:       203.48 cm**-1
  18:       216.86 cm**-1
  19:       229.05 cm**-1
  20:       257.19 cm**-1
  21:       285.42 cm**-1
  22:       298.01 cm**-1
  23:       349.79 cm**-1
  24:       362.24 cm**-1
  25:       392.75 cm**-1
  26:       455.34 cm**-1
  27:       491.00 cm**-1
  28:       525.22 cm**-1
  29:       563.14 cm**-1
  30:       588.96 cm**-1
  31:       662.24 cm**-1
  32:       681.54 cm**-1
  33:       701.00 cm**-1
  34:       772.62 cm**-1
  35:       809.16 cm**-1
  36:       861.72 cm**-1
  37:       873.73 cm**-1
  38:       880.35 cm**-1
  39:       923.08 cm**-1
  40:       949.53 cm**-1
  41:       960.69 cm**-1
  42:      1006.18 cm**-1
  43:      1026.71 cm**-1
  44:      1042.03 cm**-1
  45:      1060.72 cm**-1
  46:      1077.05 cm**-1
  47:      1115.83 cm**-1
  48:      1133.75 cm**-1
  49:      1145.79 cm**-1
  50:      1150.61 cm**-1
  51:      1180.42 cm**-1
  52:      1195.47 cm**-1
  53:      1232.02 cm**-1
  54:      1258.09 cm**-1
  55:      1273.06 cm**-1
  56:      1304.37 cm**-1
  57:      1319.30 cm**-1
  58:      1329.13 cm**-1
  59:      1359.70 cm**-1
  60:      1366.18 cm**-1
  61:      1388.53 cm**-1
  62:      1412.78 cm**-1
  63:      1423.94 cm**-1
  64:      1435.66 cm**-1
  65:      1452.31 cm**-1
  66:      1469.96 cm**-1
  67:      1481.78 cm**-1
  68:      1483.68 cm**-1
  69:      1487.70 cm**-1
  70:      1496.37 cm**-1
  71:      1496.53 cm**-1
  72:      1503.55 cm**-1
  73:      1506.13 cm**-1
  74:      1573.55 cm**-1
  75:      1596.20 cm**-1
  76:      1655.94 cm**-1
  77:      1660.09 cm**-1
  78:      1747.41 cm**-1
  79:      1792.10 cm**-1
  80:      3019.70 cm**-1
  81:      3020.92 cm**-1
  82:      3073.47 cm**-1
  83:      3087.53 cm**-1
  84:      3089.65 cm**-1
  85:      3106.34 cm**-1
  86:      3114.98 cm**-1
  87:      3126.32 cm**-1
  88:      3160.62 cm**-1
  89:      3168.04 cm**-1
  90:      3180.71 cm**-1
  91:      3187.16 cm**-1
  92:      3199.05 cm**-1
  93:      3222.27 cm**-1
  94:      3414.66 cm**-1
  95:      3502.43 cm**-1
  96:      3506.03 cm**-1
  97:      3591.91 cm**-1
  98:      3647.86 cm**-1

IR SPECTRUM
-----------

 Mode   freq       eps      Int      T**2         TX        TY        TZ
       cm**-1   L/(mol*cm) km/mol    a.u.
----------------------------------------------------------------------------
  8:     24.20   0.000692    3.50  0.008917  (-0.035208 -0.016391  0.086076)
  9:     33.73   0.001995   10.08  0.018462  ( 0.115150  0.065961  0.029173)
 10:     56.59   0.000400    2.02  0.002205  (-0.021834 -0.030483  0.028262)
 11:     72.21   0.001123    5.67  0.004852  (-0.028166  0.053392  0.034763)
 12:     79.05   0.000449    2.27  0.001774  (-0.024470  0.030434 -0.015779)
 13:     98.11   0.000454    2.29  0.001444  (-0.015074 -0.004555  0.034579)
 14:    117.14   0.003142   15.88  0.008371  ( 0.028086 -0.083877  0.023377)
 15:    138.24   0.003798   19.19  0.008574  (-0.044238 -0.074667 -0.032271)
 16:    174.47   0.004457   22.52  0.007972  (-0.050343 -0.068047 -0.028408)
 17:    203.48   0.000596    3.01  0.000914  ( 0.027849  0.003359  0.011273)
 18:    216.86   0.001448    7.32  0.002083  (-0.026697 -0.035099  0.011780)
 19:    229.05   0.000485    2.45  0.000660  (-0.013073 -0.022094 -0.001202)
 20:    257.19   0.002124   10.73  0.002577  (-0.045634  0.009630 -0.020051)
 21:    285.42   0.000466    2.36  0.000510  ( 0.000633 -0.012606  0.018719)
 22:    298.01   0.000014    0.07  0.000014  (-0.003606  0.001158 -0.000112)
 23:    349.79   0.000993    5.02  0.000886  (-0.020970  0.009891 -0.018662)
 24:    362.24   0.000216    1.09  0.000186  (-0.009943 -0.009190 -0.001622)
 25:    392.75   0.006413   32.41  0.005095  ( 0.052463 -0.016955  0.045335)
 26:    455.34   0.005799   29.30  0.003974  (-0.057793 -0.021686 -0.012792)
 27:    491.00   0.004685   23.68  0.002978  (-0.032443 -0.037728  0.022404)
 28:    525.22   0.007506   37.93  0.004460  (-0.023482 -0.061545  0.010989)
 29:    563.14   0.012675   64.06  0.007024  ( 0.059045  0.056786  0.017691)
 30:    588.96   0.005829   29.46  0.003089  (-0.004586  0.055138 -0.005235)
 31:    662.24   0.002794   14.12  0.001317  (-0.021267 -0.027727 -0.009773)
 32:    681.54   0.001304    6.59  0.000597  ( 0.009315  0.014818  0.017050)
 33:    701.00   0.000195    0.98  0.000087  ( 0.004947 -0.007885 -0.000077)
 34:    772.62   0.001283    6.48  0.000518  (-0.014797  0.008806  0.014893)
 35:    809.16   0.000055    0.28  0.000021  (-0.004015  0.002041 -0.001041)
 36:    861.72   0.004240   21.43  0.001536  ( 0.010379 -0.019269  0.032504)
 37:    873.73   0.003557   17.98  0.001271  ( 0.020496 -0.022832  0.018142)
 38:    880.35   0.000758    3.83  0.000269  (-0.001356 -0.010336  0.012651)
 39:    923.08   0.000588    2.97  0.000199  ( 0.003970  0.002113 -0.013364)
 40:    949.53   0.002812   14.21  0.000924  (-0.009024  0.028897 -0.002770)
 41:    960.69   0.002848   14.39  0.000925  ( 0.026320  0.011249 -0.010281)
 42:   1006.18   0.000594    3.00  0.000184  ( 0.001329  0.011866 -0.006450)
 43:   1026.71   0.001220    6.16  0.000371  (-0.005631 -0.002343 -0.018264)
 44:   1042.03   0.002023   10.22  0.000606  (-0.021905  0.000111 -0.011224)
 45:   1060.72   0.001284    6.49  0.000378  ( 0.009377  0.016629  0.003638)
 46:   1077.05   0.001378    6.96  0.000399  ( 0.014942 -0.013253 -0.000628)
 47:   1115.83   0.001300    6.57  0.000364  (-0.017043  0.003065 -0.007983)
 48:   1133.75   0.001300    6.57  0.000358  (-0.006095 -0.005091 -0.017166)
 49:   1145.79   0.001872    9.46  0.000510  (-0.019462  0.008480 -0.007693)
 50:   1150.61   0.000183    0.93  0.000050  ( 0.002458  0.004576  0.004763)
 51:   1180.42   0.004433   22.40  0.001172  ( 0.020787 -0.025165  0.010325)
 52:   1195.47   0.003394   17.15  0.000886  ( 0.022823 -0.015167  0.011626)
 53:   1232.02   0.001801    9.10  0.000456  ( 0.015590 -0.008997  0.011496)
 54:   1258.09   0.004541   22.95  0.001126  (-0.018655  0.016856 -0.022230)
 55:   1273.06   0.010489   53.01  0.002571  ( 0.024188 -0.028558  0.034214)
 56:   1304.37   0.002801   14.16  0.000670  ( 0.004174 -0.013544  0.021665)
 57:   1319.30   0.002342   11.83  0.000554  (-0.020578 -0.004697 -0.010412)
 58:   1329.13   0.001255    6.34  0.000295  (-0.011480 -0.011688  0.005123)
 59:   1359.70   0.003109   15.71  0.000714  ( 0.019115 -0.007297  0.017174)
 60:   1366.18   0.001919    9.70  0.000438  ( 0.001392 -0.020881 -0.000701)
 61:   1388.53   0.000618    3.12  0.000139  ( 0.006942  0.005313 -0.007902)
 62:   1412.78   0.005848   29.55  0.001292  ( 0.033654 -0.004041  0.011952)
 63:   1423.94   0.002508   12.67  0.000550  (-0.002410  0.009650 -0.021228)
 64:   1435.66   0.001260    6.37  0.000274  ( 0.008510  0.009346 -0.010681)
 65:   1452.31   0.003950   19.96  0.000849  (-0.018756  0.019101  0.011489)
 66:   1469.96   0.003642   18.40  0.000773  (-0.001177  0.023179 -0.015314)
 67:   1481.78   0.001136    5.74  0.000239  ( 0.009903 -0.011296  0.003669)
 68:   1483.68   0.003420   17.28  0.000719  (-0.016215 -0.010258  0.018740)
 69:   1487.70   0.006383   32.26  0.001339  (-0.006128  0.008443 -0.035072)
 70:   1496.37   0.018313   92.55  0.003819  ( 0.015545 -0.037429  0.046655)
 71:   1496.53   0.014902   75.31  0.003107  (-0.018146 -0.044983  0.027470)
 72:   1503.55   0.010300   52.05  0.002138  (-0.015406 -0.041888  0.012077)
 73:   1506.13   0.003791   19.16  0.000785  (-0.009471  0.013169 -0.022855)
 74:   1573.55   0.120431  608.61  0.023884  (-0.118879  0.062570 -0.076397)
 75:   1596.20   0.016024   80.98  0.003133  (-0.028706  0.043634 -0.020118)
 76:   1655.94   0.007785   39.34  0.001467  ( 0.037290 -0.008290 -0.002814)
 77:   1660.09   0.008651   43.72  0.001626  ( 0.000056  0.020839  0.034524)
 78:   1747.41   0.067022  338.70  0.011969  ( 0.039383  0.030940 -0.097267)
 79:   1792.10   0.041435  209.39  0.007215  ( 0.066331 -0.044661 -0.028648)
 80:   3019.70   0.003579   18.09  0.000370  ( 0.008136  0.015188 -0.008545)
 81:   3020.92   0.002648   13.38  0.000273  (-0.015854  0.001125  0.004569)
 82:   3073.47   0.003380   17.08  0.000343  ( 0.011726 -0.014238  0.001712)
 83:   3087.53   0.005173   26.14  0.000523  ( 0.011973 -0.013802  0.013747)
 84:   3089.65   0.000279    1.41  0.000028  ( 0.000965 -0.004577 -0.002510)
 85:   3106.34   0.003358   16.97  0.000337  ( 0.002313  0.017866  0.003580)
 86:   3114.98   0.002031   10.26  0.000203  ( 0.003733  0.013757 -0.000510)
 87:   3126.32   0.000980    4.95  0.000098  (-0.001917 -0.006659  0.007055)
 88:   3160.62   0.001465    7.40  0.000145  (-0.009546 -0.007303 -0.000398)
 89:   3168.04   0.000381    1.93  0.000038  (-0.005164  0.003302 -0.000028)
 90:   3180.71   0.004138   20.91  0.000406  ( 0.010641  0.017083 -0.000948)
 91:   3187.16   0.000922    4.66  0.000090  ( 0.001636  0.004929 -0.007960)
 92:   3199.05   0.000007    0.03  0.000001  ( 0.000309 -0.000086  0.000738)
 93:   3222.27   0.000023    0.12  0.000002  (-0.000127 -0.001312  0.000700)
 94:   3414.66   0.012640   63.88  0.001155  (-0.000749 -0.026587  0.021159)
 95:   3502.43   0.019569   98.89  0.001744  ( 0.033781 -0.019231 -0.015249)
 96:   3506.03   0.021264  107.46  0.001893  ( 0.025282  0.016939  0.031090)
 97:   3591.91   0.026184  132.32  0.002275  (-0.000253 -0.015927  0.044957)
 98:   3647.86   0.009814   49.60  0.000840  ( 0.019650 -0.015574 -0.014522)

--------------------------
THERMOCHEMISTRY AT 298.15K
--------------------------

Temperature         ... 298.15 K
Pressure            ... 1.00 atm
Total Mass          ... 201.27 AMU

Throughout the following assumptions are being made:
  (1) The electronic state is orbitally nondegenerate
      but the spin degeneracy is treated
  (2) There are no thermally accessible electronically excited states
  (3) Hindered rotations indicated by low frequency modes are not
      treated as such but are treated as vibrations and this may
      cause some error
  (4) All equations used are the standard statistical mechanics
      equations for an ideal gas
  (5) All vibrations are strictly harmonic

freq.      24.20  E(vib)   ...       0.56
freq.      33.73  E(vib)   ...       0.55
freq.      56.59  E(vib)   ...       0.52
freq.      72.21  E(vib)   ...       0.50
freq.      79.05  E(vib)   ...       0.49
freq.      98.11  E(vib)   ...       0.46
freq.     117.14  E(vib)   ...       0.44
freq.     138.24  E(vib)   ...       0.42
freq.     174.47  E(vib)   ...       0.38
freq.     203.48  E(vib)   ...       0.35
freq.     216.86  E(vib)   ...       0.34
freq.     229.05  E(vib)   ...       0.32
freq.     257.19  E(vib)   ...       0.30
freq.     285.42  E(vib)   ...       0.28
freq.     298.01  E(vib)   ...       0.27
freq.     349.79  E(vib)   ...       0.23
freq.     362.24  E(vib)   ...       0.22
freq.     392.75  E(vib)   ...       0.20
freq.     455.34  E(vib)   ...       0.16
freq.     491.00  E(vib)   ...       0.14
freq.     525.22  E(vib)   ...       0.13
freq.     563.14  E(vib)   ...       0.11
freq.     588.96  E(vib)   ...       0.10
freq.     662.24  E(vib)   ...       0.08
freq.     681.54  E(vib)   ...       0.08
freq.     701.00  E(vib)   ...       0.07
freq.     772.62  E(vib)   ...       0.05
freq.     809.16  E(vib)   ...       0.05
freq.     861.72  E(vib)   ...       0.04
freq.     873.73  E(vib)   ...       0.04
freq.     880.35  E(vib)   ...       0.04
freq.     923.08  E(vib)   ...       0.03
freq.     949.53  E(vib)   ...       0.03
freq.     960.69  E(vib)   ...       0.03
freq.    1006.18  E(vib)   ...       0.02
freq.    1026.71  E(vib)   ...       0.02
freq.    1042.03  E(vib)   ...       0.02
freq.    1060.72  E(vib)   ...       0.02
freq.    1077.05  E(vib)   ...       0.02
freq.    1115.83  E(vib)   ...       0.01
freq.    1133.75  E(vib)   ...       0.01
freq.    1145.79  E(vib)   ...       0.01
freq.    1150.61  E(vib)   ...       0.01
freq.    1180.42  E(vib)   ...       0.01
freq.    1195.47  E(vib)   ...       0.01
freq.    1232.02  E(vib)   ...       0.01
freq.    1258.09  E(vib)   ...       0.01
freq.    1273.06  E(vib)   ...       0.01
freq.    1304.37  E(vib)   ...       0.01
freq.    1319.30  E(vib)   ...       0.01
freq.    1329.13  E(vib)   ...       0.01
freq.    1359.70  E(vib)   ...       0.01
freq.    1366.18  E(vib)   ...       0.01
freq.    1388.53  E(vib)   ...       0.00
freq.    1412.78  E(vib)   ...       0.00
freq.    1423.94  E(vib)   ...       0.00
freq.    1435.66  E(vib)   ...       0.00
freq.    1452.31  E(vib)   ...       0.00
freq.    1469.96  E(vib)   ...       0.00
freq.    1481.78  E(vib)   ...       0.00
freq.    1483.68  E(vib)   ...       0.00
freq.    1487.70  E(vib)   ...       0.00
freq.    1496.37  E(vib)   ...       0.00
freq.    1496.53  E(vib)   ...       0.00
freq.    1503.55  E(vib)   ...       0.00
freq.    1506.13  E(vib)   ...       0.00
freq.    1573.55  E(vib)   ...       0.00
freq.    1596.20  E(vib)   ...       0.00
freq.    1655.94  E(vib)   ...       0.00
freq.    1660.09  E(vib)   ...       0.00
freq.    1747.41  E(vib)   ...       0.00
freq.    1792.10  E(vib)   ...       0.00
freq.    3019.70  E(vib)   ...       0.00
freq.    3020.92  E(vib)   ...       0.00
freq.    3073.47  E(vib)   ...       0.00
freq.    3087.53  E(vib)   ...       0.00
freq.    3089.65  E(vib)   ...       0.00
freq.    3106.34  E(vib)   ...       0.00
freq.    3114.98  E(vib)   ...       0.00
freq.    3126.32  E(vib)   ...       0.00
freq.    3160.62  E(vib)   ...       0.00
freq.    3168.04  E(vib)   ...       0.00
freq.    3180.71  E(vib)   ...       0.00
freq.    3187.16  E(vib)   ...       0.00
freq.    3199.05  E(vib)   ...       0.00
freq.    3222.27  E(vib)   ...       0.00
freq.    3414.66  E(vib)   ...       0.00
freq.    3502.43  E(vib)   ...       0.00
freq.    3506.03  E(vib)   ...       0.00
freq.    3591.91  E(vib)   ...       0.00
freq.    3647.86  E(vib)   ...       0.00

------------
INNER ENERGY
------------

The inner energy is: U= E(el) + E(ZPE) + E(vib) + E(rot) + E(trans)
    E(el)   - is the total energy from the electronic structure calculation
              = E(kin-el) + E(nuc-el) + E(el-el) + E(nuc-nuc)
    E(ZPE)  - the the zero temperature vibrational energy from the frequency calculation
    E(vib)  - the the finite temperature correction to E(ZPE) due to population
              of excited vibrational states
    E(rot)  - is the rotational thermal energy
    E(trans)- is the translational thermal energy

Summary of contributions to the inner energy U:
Electronic energy                ...   -668.81725371 Eh
Zero point energy                ...      0.29194291 Eh     183.20 kcal/mol
Thermal vibrational correction   ...      0.01316537 Eh       8.26 kcal/mol
Thermal rotational correction    ...      0.00141627 Eh       0.89 kcal/mol
Thermal translational correction ...      0.00141627 Eh       0.89 kcal/mol
-----------------------------------------------------------------------
Total thermal energy                   -668.50931288 Eh

Summary of corrections to the electronic energy:
(perhaps to be used in another calculation)
Total thermal correction                  0.01599791 Eh      10.04 kcal/mol
Non-thermal (ZPE) correction              0.29194291 Eh     183.20 kcal/mol
-----------------------------------------------------------------------
Total correction                          0.30794083 Eh     193.24 kcal/mol

--------
ENTHALPY
--------

The enthalpy is H = U + kB*T
                kB is Boltzmann's constant
Total free energy                 ...   -668.50931288 Eh
Thermal Enthalpy correction       ...      0.00094421 Eh       0.59 kcal/mol
-----------------------------------------------------------------------
Total Enthalpy                    ...   -668.50836867 Eh

Note: Only C1 symmetry has been detected, increase convergence thresholds
      if your molecule has a higher symmetry. Symmetry factor of 1.0 is
      used for the rotational entropy correction.

Note: Rotational entropy computed according to Herzberg
Infrared and Raman Spectra, Chapter V,1, Van Nostrand Reinhold, 1945
Point Group:  C1, Symmetry Number:   1
Rotational constants in cm-1:     0.031350     0.013021     0.010286

                             ****ORCA TERMINATED NORMALLY****
TOTAL RUN TIME: 0 days 0 hours 25 minutes 20 seconds 819 msec
