                         Program Version 5.0.4 -  RELEASE  -
|  1> ! B3LYP EPR-II OPT
|  2> %pal nprocs 16 end
|  3> *XYZFile 1 2 model.xyz
|  4>
|  5>                          ****END OF INPUT****
 Total Charge           Charge          ....    1
 Multiplicity           Mult            ....    2
 Number of Electrons    NEL             ....  109
FINAL SINGLE POINT ENERGY      -668.592899669555
FINAL SINGLE POINT ENERGY      -668.594398371717
FINAL SINGLE POINT ENERGY      -668.593408766942
FINAL SINGLE POINT ENERGY      -668.594596971453
FINAL SINGLE POINT ENERGY      -668.594638180408
FINAL SINGLE POINT ENERGY      -668.594672708317
FINAL SINGLE POINT ENERGY      -668.594689365490
FINAL SINGLE POINT ENERGY      -668.594704563404
FINAL SINGLE POINT ENERGY      -668.594722219133
FINAL SINGLE POINT ENERGY      -668.594733082790
FINAL SINGLE POINT ENERGY      -668.594796490962
FINAL SINGLE POINT ENERGY      -668.594806322360
FINAL SINGLE POINT ENERGY      -668.594821447192
FINAL SINGLE POINT ENERGY      -668.594843076472
FINAL SINGLE POINT ENERGY      -668.594870712560
FINAL SINGLE POINT ENERGY      -668.594877728425
FINAL SINGLE POINT ENERGY      -668.594889558817
FINAL SINGLE POINT ENERGY      -668.594911945317
FINAL SINGLE POINT ENERGY      -668.594916897937
                    ***********************HURRAY********************

CARTESIAN COORDINATES (ANGSTROEM)
---------------------------------
  N     -7.617007    1.396341    0.277124
  C     -6.205451    1.039096    0.320010
  C     -5.931516    0.601314    1.782111
  O     -6.678094    0.966066    2.691871
  C     -5.230104    2.172376   -0.123952
  C     -5.442865    3.504999    0.532471
  C     -5.317105    4.772726   -0.273989
  C     -6.615867    5.022412   -1.067350
  N     -6.421660    6.141925   -2.105940
  H     -4.482214    4.673466   -0.986486
  H     -5.102034    5.630223    0.374715
  H     -7.431767    5.352471   -0.420951
  H     -6.935160    4.136994   -1.625039
  H     -7.279673    6.301753   -2.642450
  H     -5.682580    5.887990   -2.768438
  H     -8.091157    1.285418    1.167062
  C     -8.287364    1.897149   -0.792328
  N     -4.820747   -0.158875    1.963668
  H     -4.334967   -0.500495    1.147300
  O     -7.727554    2.208821   -1.856738
  H     -6.151776    7.025404   -1.663064
  C     -4.408429   -0.666525    3.274031
  H     -4.648147   -1.729638    3.376508
  H     -3.333115   -0.524702    3.408990
  H     -4.947479   -0.109324    4.039703
  C     -9.793460    2.039195   -0.614021
  H    -10.115668    3.010242   -0.997358
  H    -10.280246    1.270936   -1.223099
  H    -10.122553    1.923795    0.421361
  H     -6.025092    0.188048   -0.350467
  H     -4.207577    1.816499    0.084528
  H     -5.311112    2.268413   -1.209837
  H     -5.647481    3.568910    1.597015

 Multiplicity           Mult            ....    2
 Number of Electrons    NEL             ....  109
 Basis Dimension        Dim             ....  371

ORBITAL ENERGIES
----------------
                 SPIN UP ORBITALS
  NO   OCC          E(Eh)            E(eV)
   0   1.0000     -19.215289      -522.8746
   1   1.0000     -19.211977      -522.7845
   2   1.0000     -14.631438      -398.1417
   3   1.0000     -14.463193      -393.5635
   4   1.0000     -14.458730      -393.4420
   5   1.0000     -10.403719      -283.0996
   6   1.0000     -10.398893      -282.9683
   7   1.0000     -10.398142      -282.9478
   8   1.0000     -10.350724      -281.6575
   9   1.0000     -10.350368      -281.6478
  10   1.0000     -10.328654      -281.0570
  11   1.0000     -10.311993      -280.6036
  12   1.0000     -10.303207      -280.3645
  13   1.0000     -10.284901      -279.8664
  14   1.0000      -1.177627       -32.0448
  15   1.0000      -1.141113       -31.0513
  16   1.0000      -1.130233       -30.7552
  17   1.0000      -1.025509       -27.9055
  18   1.0000      -1.022040       -27.8111
  19   1.0000      -0.953265       -25.9397
  20   1.0000      -0.897713       -24.4280
  21   1.0000      -0.851283       -23.1646
  22   1.0000      -0.823473       -22.4079
  23   1.0000      -0.804590       -21.8940
  24   1.0000      -0.772891       -21.0314
  25   1.0000      -0.764989       -20.8164
  26   1.0000      -0.753537       -20.5048
  27   1.0000      -0.708144       -19.2696
  28   1.0000      -0.689819       -18.7709
  29   1.0000      -0.669178       -18.2093
  30   1.0000      -0.658442       -17.9171
  31   1.0000      -0.636677       -17.3249
  32   1.0000      -0.616710       -16.7815
  33   1.0000      -0.591216       -16.0878
  34   1.0000      -0.577237       -15.7074
  35   1.0000      -0.568939       -15.4816
  36   1.0000      -0.556425       -15.1411
  37   1.0000      -0.549104       -14.9419
  38   1.0000      -0.546760       -14.8781
  39   1.0000      -0.538013       -14.6401
  40   1.0000      -0.530769       -14.4430
  41   1.0000      -0.524466       -14.2715
  42   1.0000      -0.509220       -13.8566
  43   1.0000      -0.498748       -13.5716
  44   1.0000      -0.496065       -13.4986
  45   1.0000      -0.488240       -13.2857
  46   1.0000      -0.481886       -13.1128
  47   1.0000      -0.473396       -12.8818
  48   1.0000      -0.466363       -12.6904
  49   1.0000      -0.450948       -12.2709
  50   1.0000      -0.367338        -9.9958
  51   1.0000      -0.365239        -9.9387
  52   1.0000      -0.358629        -9.7588
  53   1.0000      -0.352439        -9.5903
  54   1.0000      -0.324975        -8.8430
  55   0.0000      -0.172639        -4.6978
  56   0.0000      -0.103009        -2.8030
  57   0.0000      -0.099088        -2.6963
  58   0.0000      -0.093147        -2.5347
  59   0.0000      -0.078677        -2.1409

                 SPIN DOWN ORBITALS
  NO   OCC          E(Eh)            E(eV)
   0   1.0000     -19.215263      -522.8739
   1   1.0000     -19.211961      -522.7840
   2   1.0000     -14.631183      -398.1347
   3   1.0000     -14.463182      -393.5632
   4   1.0000     -14.458694      -393.4411
   5   1.0000     -10.402251      -283.0596
   6   1.0000     -10.398890      -282.9682
   7   1.0000     -10.398161      -282.9483
   8   1.0000     -10.351686      -281.6837
   9   1.0000     -10.349769      -281.6315
  10   1.0000     -10.314744      -280.6784
  11   1.0000     -10.312846      -280.6268
  12   1.0000     -10.303207      -280.3645
  13   1.0000     -10.284902      -279.8664
  14   1.0000      -1.176910       -32.0254
  15   1.0000      -1.141041       -31.0493
  16   1.0000      -1.130190       -30.7540
  17   1.0000      -1.025139       -27.8955
  18   1.0000      -1.021976       -27.8094
  19   1.0000      -0.944412       -25.6988
  20   1.0000      -0.894101       -24.3297
  21   1.0000      -0.843803       -22.9611
  22   1.0000      -0.822277       -22.3753
  23   1.0000      -0.803855       -21.8740
  24   1.0000      -0.769626       -20.9426
  25   1.0000      -0.764626       -20.8065
  26   1.0000      -0.752668       -20.4811
  27   1.0000      -0.697677       -18.9848
  28   1.0000      -0.688475       -18.7344
  29   1.0000      -0.664495       -18.0818
  30   1.0000      -0.654976       -17.8228
  31   1.0000      -0.635818       -17.3015
  32   1.0000      -0.615011       -16.7353
  33   1.0000      -0.588906       -16.0250
  34   1.0000      -0.576530       -15.6882
  35   1.0000      -0.567302       -15.4371
  36   1.0000      -0.549578       -14.9548
  37   1.0000      -0.547939       -14.9102
  38   1.0000      -0.543774       -14.7969
  39   1.0000      -0.535295       -14.5661
  40   1.0000      -0.528362       -14.3774
  41   1.0000      -0.521456       -14.1895
  42   1.0000      -0.507016       -13.7966
  43   1.0000      -0.496648       -13.5145
  44   1.0000      -0.494614       -13.4591
  45   1.0000      -0.486750       -13.2451
  46   1.0000      -0.481402       -13.0996
  47   1.0000      -0.470479       -12.8024
  48   1.0000      -0.465064       -12.6550
  49   1.0000      -0.450136       -12.2488
  50   1.0000      -0.366725        -9.9791
  51   1.0000      -0.365089        -9.9346
  52   1.0000      -0.358380        -9.7520
  53   1.0000      -0.352275        -9.5859
  54   0.0000      -0.184082        -5.0091
  55   0.0000      -0.172370        -4.6904
  56   0.0000      -0.102195        -2.7809
  57   0.0000      -0.098691        -2.6855
  58   0.0000      -0.091090        -2.4787

MULLIKEN ATOMIC CHARGES AND SPIN POPULATIONS
--------------------------------------------
   0 N :   -0.086267    0.003823
   1 C :   -0.084235    0.022486
   2 C :    0.068380   -0.003374
   3 O :   -0.320224    0.001554
   4 C :   -0.284453   -0.058026
   5 C :   -0.083753    0.996415
   6 C :   -0.316421   -0.050140
   7 C :   -0.240513    0.050016
   8 N :   -0.384982    0.007752
   9 H :    0.157394    0.022623
  10 H :    0.162788    0.005111
  11 H :    0.205823   -0.002209
  12 H :    0.251129   -0.002368
  13 H :    0.334750    0.000340
  14 H :    0.332145    0.000108
  15 H :    0.261173    0.000375
  16 C :    0.161922   -0.002561
  17 N :   -0.096379    0.001596
  18 H :    0.235774    0.000083
  19 O :   -0.371778    0.000074
  20 H :    0.329485   -0.000284
  21 C :   -0.443203   -0.000084
  22 H :    0.181386    0.000006
  23 H :    0.167249   -0.000002
  24 H :    0.201305    0.000033
  25 C :   -0.530364    0.000716
  26 H :    0.166267   -0.000018
  27 H :    0.203580   -0.000002
  28 H :    0.161524    0.000013
  29 H :    0.166892   -0.000327
  30 H :    0.155662    0.047555
  31 H :    0.171009    0.007036
  32 H :    0.166932   -0.048322
Sum of atomic charges         :    1.0000000

LOEWDIN ATOMIC CHARGES AND SPIN POPULATIONS
-------------------------------------------
   0 N :    0.077995    0.002676
   1 C :   -0.032225    0.021420
   2 C :   -0.100672    0.000260
   3 O :   -0.183227    0.000973
   4 C :   -0.064323    0.008050
   5 C :   -0.012752    0.817231
   6 C :   -0.082614    0.014127
   7 C :    0.025490    0.049226
   8 N :    0.339854    0.007031
   9 H :    0.057456    0.018366
  10 H :    0.054535    0.003164
  11 H :    0.059603   -0.000020
  12 H :    0.074201    0.000284
  13 H :    0.124450    0.001026
  14 H :    0.124979    0.000289
  15 H :    0.098687    0.000675
  16 C :   -0.098983    0.001392
  17 N :    0.049847    0.000736
  18 H :    0.082125    0.000282
  19 O :   -0.237212    0.000643
  20 H :    0.122068    0.000094
  21 C :    0.024902    0.000020
  22 H :    0.038763    0.000006
  23 H :    0.036548   -0.000000
  24 H :    0.055697    0.000022
  25 C :   -0.032503    0.000070
  26 H :    0.049059   -0.000004
  27 H :    0.064641   -0.000007
  28 H :    0.040973    0.000022
  29 H :    0.065105    0.000080
  30 H :    0.063906    0.039399
  31 H :    0.059271    0.006249
  32 H :    0.054353    0.006217

  Mayer bond orders larger than 0.100000
B(  0-N ,  1-C ) :   1.0215 B(  0-N , 15-H ) :   0.8846 B(  0-N , 16-C ) :   1.2575
B(  1-C ,  2-C ) :   0.9067 B(  1-C ,  4-C ) :   0.9299 B(  1-C , 29-H ) :   0.9623
B(  2-C ,  3-O ) :   1.8698 B(  2-C , 17-N ) :   1.2140 B(  4-C ,  5-C ) :   1.0151
B(  4-C , 30-H ) :   0.9433 B(  4-C , 31-H ) :   0.9618 B(  5-C ,  6-C ) :   0.9971
B(  5-C , 32-H ) :   0.9687 B(  6-C ,  7-C ) :   0.9520 B(  6-C ,  9-H ) :   0.9681
B(  6-C , 10-H ) :   0.9573 B(  7-C ,  8-N ) :   0.8612 B(  7-C , 11-H ) :   0.9444
B(  7-C , 12-H ) :   0.8958 B(  8-N , 13-H ) :   0.8862 B(  8-N , 14-H ) :   0.8867
B(  8-N , 20-H ) :   0.8868 B( 16-C , 19-O ) :   1.7617 B( 16-C , 25-C ) :   0.9121
B( 17-N , 18-H ) :   0.9272 B( 17-N , 21-C ) :   0.9597 B( 21-C , 22-H ) :   0.9544
B( 21-C , 23-H ) :   0.9579 B( 21-C , 24-H ) :   0.9441 B( 25-C , 26-H ) :   0.9656
B( 25-C , 27-H ) :   0.9462 B( 25-C , 28-H ) :   0.9699

FINAL SINGLE POINT ENERGY      -668.594919408273

DIPOLE MOMENT
-------------
                                X             Y             Z
Electronic contribution:     -1.65597      -3.70783       0.47054
Nuclear contribution   :      2.69094       8.34783      -3.11176
                        -----------------------------------------
Total Dipole Moment    :      1.03497       4.64000      -2.64122
                        -----------------------------------------
Magnitude (a.u.)       :      5.43845
Magnitude (Debye)      :     13.82345

Rotational constants in cm-1:     0.030764     0.012645     0.010010
Rotational constants in MHz :   922.283276   379.090471   300.102318

                             ****ORCA TERMINATED NORMALLY****
TOTAL RUN TIME: 0 days 0 hours 14 minutes 57 seconds 531 msec
