                         Program Version 5.0.4 -  RELEASE  -
|  1> ! B3LYP EPR-II AUTOAUX
|  2> %pal nprocs 16 end
|  3> *XYZFile 0 2 opt.xyz
|  4> %EPRNMR
|  5>         GTENSOR   TRUE
|  6>         NUCLEI    = 1,4,6,8,9,11,12,13,14,16,17,18 {SHIFT, AISO, ADIP, AORB}
|  7>         ORI       GIAO
|  8> END
|  9>
| 10>                          ****END OF INPUT****

CARTESIAN COORDINATES (ANGSTROEM)
---------------------------------
  N     -4.538675   -4.774875   -0.641114
  C     -3.085752   -4.922337   -0.762098
  C     -2.552771   -4.915971    0.711314
  O     -3.240825   -5.402085    1.612675
  C     -2.456502   -3.922880   -1.684807
  H     -1.770801   -4.282302   -2.444856
  C     -2.776896   -2.459424   -1.650964
  H     -3.180384   -2.113085   -2.611887
  H     -3.549367   -2.236415   -0.904059
  C     -1.567601   -1.591287   -1.316090
  O     -1.760962   -0.293154   -1.645775
  O     -0.532802   -1.980280   -0.800198
  H     -4.891316   -4.998504    0.283202
  H     -2.847527   -5.926304   -1.144587
  C     -5.364044   -4.903203   -1.729843
  N     -1.308824   -4.415216    0.893987
  H     -0.958398    0.185720   -1.380562
  H     -0.903978   -3.848059    0.154954
  O     -4.939820   -4.932549   -2.884179
  C     -6.856478   -4.981038   -1.419967
  H     -7.373008   -4.214045   -2.002594
  H     -7.226665   -5.954728   -1.754142
  H     -7.089486   -4.851137   -0.360093
  C     -0.696475   -4.376656    2.219299
  H     -0.797823   -5.350914    2.701649
  H      0.362118   -4.135245    2.107799
  H     -1.171090   -3.626761    2.862375

 Total Charge           Charge          ....    0
 Multiplicity           Mult            ....    2
 Number of Electrons    NEL             ....  107
 Basis Dimension        Dim             ....  329

ORBITAL ENERGIES
----------------
                 SPIN UP ORBITALS
  NO   OCC          E(Eh)            E(eV)
   0   1.0000     -19.210448      -522.7429
   1   1.0000     -19.159527      -521.3572
   2   1.0000     -19.120140      -520.2855
   3   1.0000     -19.108973      -519.9816
   4   1.0000     -14.361842      -390.8056
   5   1.0000     -14.355874      -390.6432
   6   1.0000     -10.350398      -281.6487
   7   1.0000     -10.300838      -280.3001
   8   1.0000     -10.293808      -280.1088
   9   1.0000     -10.247686      -278.8537
  10   1.0000     -10.220722      -278.1200
  11   1.0000     -10.217891      -278.0430
  12   1.0000     -10.213235      -277.9162
  13   1.0000     -10.190535      -277.2986
  14   1.0000      -1.126924       -30.6652
  15   1.0000      -1.043293       -28.3894
  16   1.0000      -1.036045       -28.1922
  17   1.0000      -1.029504       -28.0142
  18   1.0000      -0.924396       -25.1541
  19   1.0000      -0.922022       -25.0895
  20   1.0000      -0.813337       -22.1320
  21   1.0000      -0.762109       -20.7380
  22   1.0000      -0.727187       -19.7878
  23   1.0000      -0.699521       -19.0349
  24   1.0000      -0.656127       -17.8541
  25   1.0000      -0.606523       -16.5043
  26   1.0000      -0.588475       -16.0132
  27   1.0000      -0.559882       -15.2352
  28   1.0000      -0.536066       -14.5871
  29   1.0000      -0.514857       -14.0100
  30   1.0000      -0.509700       -13.8696
  31   1.0000      -0.494532       -13.4569
  32   1.0000      -0.485723       -13.2172
  33   1.0000      -0.474130       -12.9017
  34   1.0000      -0.457169       -12.4402
  35   1.0000      -0.451283       -12.2800
  36   1.0000      -0.446734       -12.1563
  37   1.0000      -0.438325       -11.9274
  38   1.0000      -0.419404       -11.4126
  39   1.0000      -0.411007       -11.1841
  40   1.0000      -0.402667       -10.9571
  41   1.0000      -0.402185       -10.9440
  42   1.0000      -0.396484       -10.7889
  43   1.0000      -0.394162       -10.7257
  44   1.0000      -0.374983       -10.2038
  45   1.0000      -0.372855       -10.1459
  46   1.0000      -0.350504        -9.5377
  47   1.0000      -0.343939        -9.3591
  48   1.0000      -0.304030        -8.2731
  49   1.0000      -0.285235        -7.7616
  50   1.0000      -0.267233        -7.2718
  51   1.0000      -0.259335        -7.0569
  52   1.0000      -0.255457        -6.9513
  53   1.0000      -0.204673        -5.5694
  54   0.0000      -0.017554        -0.4777
  55   0.0000       0.000202         0.0055
  56   0.0000       0.011543         0.3141
  57   0.0000       0.021428         0.5831
  58   0.0000       0.022480         0.6117

                 SPIN DOWN ORBITALS
  NO   OCC          E(Eh)            E(eV)
   0   1.0000     -19.210394      -522.7414
   1   1.0000     -19.159459      -521.3554
   2   1.0000     -19.119583      -520.2703
   3   1.0000     -19.108315      -519.9637
   4   1.0000     -14.361557      -390.7978
   5   1.0000     -14.355142      -390.6233
   6   1.0000     -10.349367      -281.6206
   7   1.0000     -10.299662      -280.2680
   8   1.0000     -10.293834      -280.1095
   9   1.0000     -10.248663      -278.8803
  10   1.0000     -10.221608      -278.1441
  11   1.0000     -10.217904      -278.0433
  12   1.0000     -10.199244      -277.5355
  13   1.0000     -10.190432      -277.2957
  14   1.0000      -1.126504       -30.6537
  15   1.0000      -1.042028       -28.3550
  16   1.0000      -1.035791       -28.1853
  17   1.0000      -1.028468       -27.9860
  18   1.0000      -0.923443       -25.1282
  19   1.0000      -0.920040       -25.0356
  20   1.0000      -0.801145       -21.8003
  21   1.0000      -0.760466       -20.6933
  22   1.0000      -0.725779       -19.7494
  23   1.0000      -0.694341       -18.8940
  24   1.0000      -0.648864       -17.6565
  25   1.0000      -0.600780       -16.3480
  26   1.0000      -0.586611       -15.9625
  27   1.0000      -0.552433       -15.0325
  28   1.0000      -0.531308       -14.4576
  29   1.0000      -0.513216       -13.9653
  30   1.0000      -0.507356       -13.8058
  31   1.0000      -0.491397       -13.3716
  32   1.0000      -0.484029       -13.1711
  33   1.0000      -0.473163       -12.8754
  34   1.0000      -0.455127       -12.3846
  35   1.0000      -0.450112       -12.2482
  36   1.0000      -0.445655       -12.1269
  37   1.0000      -0.436169       -11.8688
  38   1.0000      -0.416199       -11.3253
  39   1.0000      -0.408905       -11.1269
  40   1.0000      -0.401416       -10.9231
  41   1.0000      -0.399254       -10.8643
  42   1.0000      -0.395456       -10.7609
  43   1.0000      -0.392699       -10.6859
  44   1.0000      -0.372254       -10.1295
  45   1.0000      -0.370620       -10.0851
  46   1.0000      -0.349067        -9.4986
  47   1.0000      -0.343813        -9.3556
  48   1.0000      -0.303207        -8.2507
  49   1.0000      -0.275599        -7.4994
  50   1.0000      -0.265810        -7.2331
  51   1.0000      -0.255596        -6.9551
  52   1.0000      -0.251209        -6.8357
  53   0.0000      -0.068402        -1.8613
  54   0.0000      -0.015606        -0.4247
  55   0.0000       0.001263         0.0344
  56   0.0000       0.012378         0.3368
  57   0.0000       0.022042         0.5998

MULLIKEN ATOMIC CHARGES AND SPIN POPULATIONS
--------------------------------------------
   0 N :   -0.151136    0.021101
   1 C :   -0.050762   -0.057793
   2 C :    0.015980    0.035481
   3 O :   -0.331285    0.017725
   4 C :   -0.141744    0.984858
   5 H :    0.128684   -0.048451
   6 C :   -0.268856   -0.045824
   7 H :    0.198013    0.029957
   8 H :    0.190117    0.000938
   9 C :    0.127443    0.025769
  10 O :   -0.257106    0.000772
  11 O :   -0.267668   -0.000431
  12 H :    0.249479   -0.000314
  13 H :    0.176194    0.006759
  14 C :    0.187477   -0.000407
  15 N :   -0.073398    0.008612
  16 H :    0.290994    0.000791
  17 H :    0.251541    0.000622
  18 O :   -0.304763    0.015687
  19 C :   -0.561056    0.003785
  20 H :    0.185528    0.000308
  21 H :    0.187537   -0.000329
  22 H :    0.151676    0.000079
  23 C :   -0.441566   -0.000874
  24 H :    0.185444    0.000947
  25 H :    0.151576    0.000280
  26 H :    0.171657   -0.000048
Sum of atomic charges         :    0.0000000

LOEWDIN ATOMIC CHARGES AND SPIN POPULATIONS
-------------------------------------------
   0 N :    0.047311    0.019562
   1 C :   -0.052655    0.010971
   2 C :   -0.095325    0.038637
   3 O :   -0.193272    0.017533
   4 C :   -0.020876    0.792965
   5 H :    0.046671    0.007521
   6 C :   -0.045417    0.010173
   7 H :    0.076734    0.024852
   8 H :    0.079664    0.000336
   9 C :   -0.077991    0.032037
  10 O :    0.026363    0.001111
  11 O :   -0.161913    0.001608
  12 H :    0.090981    0.000603
  13 H :    0.076046    0.003271
  14 C :   -0.100064    0.001601
  15 N :    0.052608    0.009070
  16 H :    0.104408    0.000694
  17 H :    0.090571    0.005213
  18 O :   -0.172518    0.017904
  19 C :   -0.041791    0.003244
  20 H :    0.054431    0.000259
  21 H :    0.055832   -0.000045
  22 H :    0.034702    0.000065
  23 C :    0.010798    0.000241
  24 H :    0.043939    0.000443
  25 H :    0.035189    0.000219
  26 H :    0.035572   -0.000087

  Mayer bond orders larger than 0.100000
B(  0-N ,  1-C ) :   1.0120 B(  0-N , 12-H ) :   0.8881 B(  0-N , 14-C ) :   1.1861
B(  1-C ,  2-C ) :   0.8686 B(  1-C ,  4-C ) :   1.0172 B(  1-C , 13-H ) :   0.9485
B(  2-C ,  3-O ) :   1.8236 B(  2-C , 15-N ) :   1.2463 B(  4-C ,  5-H ) :   0.9781
B(  4-C ,  6-C ) :   0.9869 B(  6-C ,  7-H ) :   0.9472 B(  6-C ,  8-H ) :   0.9519
B(  6-C ,  9-C ) :   0.8834 B(  9-C , 10-O ) :   1.1604 B(  9-C , 11-O ) :   1.9218
B( 10-O , 16-H ) :   0.8937 B( 14-C , 18-O ) :   1.8756 B( 14-C , 19-C ) :   0.8947
B( 15-N , 17-H ) :   0.8853 B( 15-N , 23-C ) :   0.9515 B( 19-C , 20-H ) :   0.9602
B( 19-C , 21-H ) :   0.9561 B( 19-C , 22-H ) :   0.9747 B( 23-C , 24-H ) :   0.9564
B( 23-C , 25-H ) :   0.9666 B( 23-C , 26-H ) :   0.9539

FINAL SINGLE POINT ENERGY      -722.844011369627

DIPOLE MOMENT
-------------
                                X             Y             Z
Electronic contribution:      3.13972       2.64137      -3.09836
Nuclear contribution   :     -2.70369      -1.62696       3.54248
                        -----------------------------------------
Total Dipole Moment    :      0.43603       1.01440       0.44412
                        -----------------------------------------
Magnitude (a.u.)       :      1.19012
Magnitude (Debye)      :      3.02504

Rotational constants in cm-1:     0.024889     0.016427     0.010906
Rotational constants in MHz :   746.159974   492.455390   326.968092

CHEMICAL SHIELDING SUMMARY (ppm)  --  Orbital contribution
----------------------------------------------------------

  Nucleus  Element    Isotropic     Anisotropy
  -------  -------  ------------   ------------
      0       N          120.706        130.054
      3       O          -40.858        352.620
      5       H           26.840          2.367
      7       H           28.595          6.454
      8       H           28.654          4.192
     10       O          120.941        179.093
     11       O          -78.635       -342.208
     12       H           25.568          7.964
     13       H           27.267          5.457
     15       N          136.588         88.522
     16       H           25.933         11.719
     17       H           24.723          9.074

                             ****ORCA TERMINATED NORMALLY****
TOTAL RUN TIME: 0 days 0 hours 5 minutes 24 seconds 782 msec
