                         Program Version 5.0.4 -  RELEASE  -
|  1> ! M062X def2-TZVP OPT FREQ
|  2> %pal nprocs 16 end
|  3> *XYZFile 0 2 opt.xyz
|  4>
|  5>                          ****END OF INPUT****
 Total Charge           Charge          ....    0
 Multiplicity           Mult            ....    2
 Number of Electrons    NEL             ....  107
FINAL SINGLE POINT ENERGY      -723.074426090639
FINAL SINGLE POINT ENERGY      -723.077597532485
FINAL SINGLE POINT ENERGY      -723.077609989575
FINAL SINGLE POINT ENERGY      -723.077722194240
FINAL SINGLE POINT ENERGY      -723.077776148878
FINAL SINGLE POINT ENERGY      -723.077832688662
FINAL SINGLE POINT ENERGY      -723.077861966402
FINAL SINGLE POINT ENERGY      -723.077871089969
FINAL SINGLE POINT ENERGY      -723.077889029352
FINAL SINGLE POINT ENERGY      -723.077901877529
FINAL SINGLE POINT ENERGY      -723.077911763581
FINAL SINGLE POINT ENERGY      -723.077921237579
FINAL SINGLE POINT ENERGY      -723.077925611460
                    ***********************HURRAY********************

CARTESIAN COORDINATES (ANGSTROEM)
---------------------------------
  N     -4.519328   -4.852016   -0.637826
  C     -3.075560   -4.963272   -0.742936
  C     -2.549895   -4.857647    0.707250
  O     -3.254324   -5.195161    1.642639
  C     -2.488468   -3.972377   -1.686343
  H     -1.904453   -4.323680   -2.522426
  C     -2.807986   -2.526141   -1.588393
  H     -3.260072   -2.146765   -2.510033
  H     -3.538470   -2.334718   -0.795453
  C     -1.598561   -1.669995   -1.285635
  O     -1.853196   -0.366755   -1.459476
  O     -0.526159   -2.071617   -0.916797
  H     -4.892437   -4.993398    0.290728
  H     -2.805584   -5.968468   -1.086332
  C     -5.315159   -4.901586   -1.734472
  N     -1.288931   -4.424837    0.847938
  H     -1.047923    0.120661   -1.232013
  H     -0.830555   -3.983777    0.062226
  O     -4.864817   -4.917457   -2.863966
  C     -6.802380   -4.919917   -1.466549
  H     -7.266662   -4.122708   -2.044404
  H     -7.202253   -5.867049   -1.827643
  H     -7.049392   -4.800796   -0.413400
  C     -0.698017   -4.309763    2.165689
  H     -0.802948   -5.252826    2.699439
  H      0.356119   -4.069380    2.055275
  H     -1.188741   -3.531287    2.752351

 Multiplicity           Mult            ....    2
 Number of Electrons    NEL             ....  107
 Basis Dimension        Dim             ....  512

ORBITAL ENERGIES
----------------
                 SPIN UP ORBITALS
  NO   OCC          E(Eh)            E(eV)
   0   1.0000     -19.690654      -535.8099
   1   1.0000     -19.638910      -534.4019
   2   1.0000     -19.603134      -533.4284
   3   1.0000     -19.590874      -533.0948
   4   1.0000     -14.776758      -402.0960
   5   1.0000     -14.771830      -401.9619
   6   1.0000     -10.696215      -291.0588
   7   1.0000     -10.649676      -289.7924
   8   1.0000     -10.642638      -289.6009
   9   1.0000     -10.597774      -288.3801
  10   1.0000     -10.570386      -287.6348
  11   1.0000     -10.567983      -287.5694
  12   1.0000     -10.564101      -287.4638
  13   1.0000     -10.540820      -286.8303
  14   1.0000      -1.260004       -34.2865
  15   1.0000      -1.178184       -32.0600
  16   1.0000      -1.163584       -31.6627
  17   1.0000      -1.162851       -31.6428
  18   1.0000      -1.041620       -28.3439
  19   1.0000      -1.040060       -28.3015
  20   1.0000      -0.921956       -25.0877
  21   1.0000      -0.865854       -23.5611
  22   1.0000      -0.827452       -22.5161
  23   1.0000      -0.794980       -21.6325
  24   1.0000      -0.748850       -20.3773
  25   1.0000      -0.694968       -18.9110
  26   1.0000      -0.677334       -18.4312
  27   1.0000      -0.645647       -17.5689
  28   1.0000      -0.621443       -16.9103
  29   1.0000      -0.603034       -16.4094
  30   1.0000      -0.600519       -16.3410
  31   1.0000      -0.582809       -15.8590
  32   1.0000      -0.570012       -15.5108
  33   1.0000      -0.557251       -15.1636
  34   1.0000      -0.545075       -14.8323
  35   1.0000      -0.533627       -14.5207
  36   1.0000      -0.527824       -14.3628
  37   1.0000      -0.518056       -14.0970
  38   1.0000      -0.498036       -13.5523
  39   1.0000      -0.487765       -13.2728
  40   1.0000      -0.480706       -13.0807
  41   1.0000      -0.473490       -12.8843
  42   1.0000      -0.466095       -12.6831
  43   1.0000      -0.464326       -12.6350
  44   1.0000      -0.448826       -12.2132
  45   1.0000      -0.443052       -12.0561
  46   1.0000      -0.424142       -11.5415
  47   1.0000      -0.420044       -11.4300
  48   1.0000      -0.382204       -10.4003
  49   1.0000      -0.363395        -9.8885
  50   1.0000      -0.337842        -9.1931
  51   1.0000      -0.335427        -9.1274
  52   1.0000      -0.323654        -8.8071
  53   1.0000      -0.264798        -7.2055
  54   0.0000       0.031090         0.8460
  55   0.0000       0.040786         1.1098
  56   0.0000       0.053803         1.4640
  57   0.0000       0.065199         1.7742
  58   0.0000       0.069697         1.8966

                 SPIN DOWN ORBITALS
  NO   OCC          E(Eh)            E(eV)
   0   1.0000     -19.690626      -535.8092
   1   1.0000     -19.638921      -534.4022
   2   1.0000     -19.602879      -533.4215
   3   1.0000     -19.590216      -533.0769
   4   1.0000     -14.776586      -402.0914
   5   1.0000     -14.771253      -401.9462
   6   1.0000     -10.695410      -291.0369
   7   1.0000     -10.648938      -289.7723
   8   1.0000     -10.642667      -289.6017
   9   1.0000     -10.598557      -288.4014
  10   1.0000     -10.570388      -287.6349
  11   1.0000     -10.568704      -287.5891
  12   1.0000     -10.557030      -287.2714
  13   1.0000     -10.540753      -286.8285
  14   1.0000      -1.259584       -34.2750
  15   1.0000      -1.177091       -32.0303
  16   1.0000      -1.162769       -31.6406
  17   1.0000      -1.162295       -31.6277
  18   1.0000      -1.040669       -28.3180
  19   1.0000      -1.037640       -28.2356
  20   1.0000      -0.907235       -24.6871
  21   1.0000      -0.863959       -23.5095
  22   1.0000      -0.825740       -22.4695
  23   1.0000      -0.788839       -21.4654
  24   1.0000      -0.739444       -20.1213
  25   1.0000      -0.689177       -18.7535
  26   1.0000      -0.675064       -18.3694
  27   1.0000      -0.636441       -17.3184
  28   1.0000      -0.614302       -16.7160
  29   1.0000      -0.601630       -16.3712
  30   1.0000      -0.596705       -16.2372
  31   1.0000      -0.578221       -15.7342
  32   1.0000      -0.568349       -15.4656
  33   1.0000      -0.555859       -15.1257
  34   1.0000      -0.542587       -14.7645
  35   1.0000      -0.532526       -14.4908
  36   1.0000      -0.525841       -14.3089
  37   1.0000      -0.514401       -13.9976
  38   1.0000      -0.493105       -13.4181
  39   1.0000      -0.485863       -13.2210
  40   1.0000      -0.477699       -12.9988
  41   1.0000      -0.470194       -12.7946
  42   1.0000      -0.465558       -12.6685
  43   1.0000      -0.462794       -12.5933
  44   1.0000      -0.447605       -12.1800
  45   1.0000      -0.438994       -11.9456
  46   1.0000      -0.422433       -11.4950
  47   1.0000      -0.419968       -11.4279
  48   1.0000      -0.380569       -10.3558
  49   1.0000      -0.352272        -9.5858
  50   1.0000      -0.334343        -9.0979
  51   1.0000      -0.331672        -9.0253
  52   1.0000      -0.321483        -8.7480
  53   0.0000      -0.017284        -0.4703
  54   0.0000       0.032523         0.8850
  55   0.0000       0.041496         1.1292
  56   0.0000       0.054461         1.4820
  57   0.0000       0.065906         1.7934

MULLIKEN ATOMIC CHARGES AND SPIN POPULATIONS
--------------------------------------------
   0 N :   -0.393072    0.024510
   1 C :    0.014001   -0.098149
   2 C :    0.300644    0.029261
   3 O :   -0.418577    0.008743
   4 C :   -0.208467    1.128125
   5 H :    0.174029   -0.046181
   6 C :   -0.368954   -0.122602
   7 H :    0.199400    0.029387
   8 H :    0.195072    0.004428
   9 C :    0.406371    0.024339
  10 O :   -0.399625    0.001017
  11 O :   -0.365626   -0.002940
  12 H :    0.267386   -0.000025
  13 H :    0.168394    0.002579
  14 C :    0.386988   -0.000747
  15 N :   -0.332387    0.011489
  16 H :    0.338354    0.000752
  17 H :    0.281689   -0.006087
  18 O :   -0.393868    0.007615
  19 C :   -0.459559    0.003054
  20 H :    0.157708    0.000562
  21 H :    0.160921   -0.000181
  22 H :    0.131755    0.000256
  23 C :   -0.298230   -0.000196
  24 H :    0.159229    0.000863
  25 H :    0.145350    0.000324
  26 H :    0.151072   -0.000195
Sum of atomic charges         :   -0.0000000

LOEWDIN ATOMIC CHARGES AND SPIN POPULATIONS
-------------------------------------------
   0 N :    0.137045    0.019314
   1 C :   -0.255472    0.057950
   2 C :   -0.439568    0.026117
   3 O :    0.052343    0.008737
   4 C :   -0.084891    0.741900
   5 H :    0.137339   -0.001494
   6 C :   -0.235410    0.058831
   7 H :    0.170417    0.018341
   8 H :    0.170462    0.000138
   9 C :   -0.500417    0.026977
  10 O :    0.104821    0.001195
  11 O :    0.085577    0.001172
  12 H :    0.195125    0.000635
  13 H :    0.171411    0.000477
  14 C :   -0.481574    0.002547
  15 N :    0.109895    0.010925
  16 H :    0.201282    0.000422
  17 H :    0.190414    0.005105
  18 O :    0.069077    0.016278
  19 C :   -0.262053    0.002434
  20 H :    0.138259    0.000334
  21 H :    0.140028    0.000006
  22 H :    0.122595    0.000171
  23 C :   -0.299441    0.000943
  24 H :    0.124711    0.000430
  25 H :    0.119950    0.000189
  26 H :    0.118073   -0.000074

  Mayer bond orders larger than 0.100000
B(  0-N ,  1-C ) :   0.8750 B(  0-N , 12-H ) :   0.8821 B(  0-N , 14-C ) :   1.1896
B(  1-C ,  2-C ) :   0.9737 B(  1-C ,  4-C ) :   0.9518 B(  1-C , 13-H ) :   0.9422
B(  2-C ,  3-O ) :   1.9033 B(  2-C , 15-N ) :   1.2779 B(  4-C ,  5-H ) :   0.9665
B(  4-C ,  6-C ) :   0.8880 B(  6-C ,  7-H ) :   0.9357 B(  6-C ,  8-H ) :   0.9564
B(  6-C ,  9-C ) :   0.9786 B(  9-C , 10-O ) :   1.2186 B(  9-C , 11-O ) :   1.9618
B( 10-O , 16-H ) :   0.8582 B( 14-C , 18-O ) :   1.9458 B( 14-C , 19-C ) :   0.9068
B( 15-N , 17-H ) :   0.8819 B( 15-N , 23-C ) :   0.9230 B( 19-C , 20-H ) :   0.9629
B( 19-C , 21-H ) :   0.9562 B( 19-C , 22-H ) :   0.9867 B( 23-C , 24-H ) :   0.9676
B( 23-C , 25-H ) :   0.9658 B( 23-C , 26-H ) :   0.9725

FINAL SINGLE POINT ENERGY      -723.077929082271

DIPOLE MOMENT
-------------
                                X             Y             Z
Electronic contribution:      3.12668       2.38095      -2.99661
Nuclear contribution   :     -2.76010      -1.50508       3.39315
                        -----------------------------------------
Total Dipole Moment    :      0.36658       0.87587       0.39655
                        -----------------------------------------
Magnitude (a.u.)       :      1.02896
Magnitude (Debye)      :      2.61542

VIBRATIONAL FREQUENCIES
-----------------------

Scaling factor for frequencies =  1.000000000  (already applied!)

   0:         0.00 cm**-1
   1:         0.00 cm**-1
   2:         0.00 cm**-1
   3:         0.00 cm**-1
   4:         0.00 cm**-1
   5:         0.00 cm**-1
   6:       -16.42 cm**-1 ***imaginary mode***
   7:        21.55 cm**-1
   8:        47.99 cm**-1
   9:        60.18 cm**-1
  10:        74.27 cm**-1
  11:        85.03 cm**-1
  12:        96.06 cm**-1
  13:       123.70 cm**-1
  14:       132.67 cm**-1
  15:       164.79 cm**-1
  16:       183.74 cm**-1
  17:       225.91 cm**-1
  18:       248.64 cm**-1
  19:       288.20 cm**-1
  20:       311.38 cm**-1
  21:       377.60 cm**-1
  22:       421.81 cm**-1
  23:       483.66 cm**-1
  24:       506.19 cm**-1
  25:       516.33 cm**-1
  26:       549.47 cm**-1
  27:       572.85 cm**-1
  28:       578.55 cm**-1
  29:       626.55 cm**-1
  30:       650.78 cm**-1
  31:       670.93 cm**-1
  32:       677.40 cm**-1
  33:       731.84 cm**-1
  34:       807.59 cm**-1
  35:       873.80 cm**-1
  36:       899.14 cm**-1
  37:       937.30 cm**-1
  38:       972.73 cm**-1
  39:      1019.62 cm**-1
  40:      1032.45 cm**-1
  41:      1061.35 cm**-1
  42:      1091.62 cm**-1
  43:      1130.91 cm**-1
  44:      1152.85 cm**-1
  45:      1184.23 cm**-1
  46:      1192.67 cm**-1
  47:      1197.69 cm**-1
  48:      1220.03 cm**-1
  49:      1251.60 cm**-1
  50:      1286.51 cm**-1
  51:      1297.61 cm**-1
  52:      1328.33 cm**-1
  53:      1361.75 cm**-1
  54:      1399.56 cm**-1
  55:      1402.31 cm**-1
  56:      1428.06 cm**-1
  57:      1454.77 cm**-1
  58:      1455.96 cm**-1
  59:      1472.80 cm**-1
  60:      1485.41 cm**-1
  61:      1486.10 cm**-1
  62:      1513.82 cm**-1
  63:      1535.10 cm**-1
  64:      1593.37 cm**-1
  65:      1774.87 cm**-1
  66:      1782.36 cm**-1
  67:      1840.34 cm**-1
  68:      3051.12 cm**-1
  69:      3062.45 cm**-1
  70:      3077.40 cm**-1
  71:      3089.19 cm**-1
  72:      3105.76 cm**-1
  73:      3148.11 cm**-1
  74:      3170.55 cm**-1
  75:      3183.09 cm**-1
  76:      3188.32 cm**-1
  77:      3245.96 cm**-1
  78:      3584.79 cm**-1
  79:      3601.59 cm**-1
  80:      3799.74 cm**-1

IR SPECTRUM
-----------

 Mode   freq       eps      Int      T**2         TX        TY        TZ
       cm**-1   L/(mol*cm) km/mol    a.u.
----------------------------------------------------------------------------
  7:     21.55   0.000408    2.06  0.005911  ( 0.009308  0.075931  0.007679)
  8:     47.99   0.000324    1.64  0.002106  ( 0.005841 -0.042317  0.016759)
  9:     60.18   0.000223    1.12  0.001154  ( 0.015892 -0.025825 -0.015312)
 10:     74.27   0.001907    9.64  0.008015  ( 0.002779 -0.089085  0.008417)
 11:     85.03   0.000383    1.93  0.001404  ( 0.027165 -0.004104 -0.025487)
 12:     96.06   0.000927    4.68  0.003011  (-0.015550  0.051318 -0.011634)
 13:    123.70   0.001217    6.15  0.003071  (-0.032452 -0.012586 -0.043120)
 14:    132.67   0.001386    7.00  0.003260  ( 0.034714 -0.017762  0.041712)
 15:    164.79   0.001391    7.03  0.002634  ( 0.041964  0.026969  0.012077)
 16:    183.74   0.000409    2.07  0.000695  (-0.017128  0.019912  0.002222)
 17:    225.91   0.000687    3.47  0.000948  ( 0.024307  0.018341  0.004607)
 18:    248.64   0.002754   13.92  0.003457  (-0.051815 -0.013432 -0.024324)
 19:    288.20   0.000372    1.88  0.000403  (-0.013730  0.013240 -0.006244)
 20:    311.38   0.000075    0.38  0.000075  ( 0.002095  0.003068  0.007839)
 21:    377.60   0.004440   22.44  0.003670  (-0.049407  0.004608 -0.034745)
 22:    421.81   0.001807    9.13  0.001337  ( 0.001440  0.033637  0.014270)
 23:    483.66   0.003547   17.93  0.002289  ( 0.011539  0.031453 -0.034150)
 24:    506.19   0.006379   32.24  0.003933  ( 0.002769 -0.059800 -0.018687)
 25:    516.33   0.005062   25.58  0.003059  ( 0.050575 -0.021535 -0.006136)
 26:    549.47   0.001367    6.91  0.000776  ( 0.004178 -0.025893  0.009393)
 27:    572.85   0.016991   85.86  0.009256  ( 0.002524 -0.083116 -0.048387)
 28:    578.55   0.009144   46.21  0.004932  (-0.015902  0.060591 -0.031750)
 29:    626.55   0.011325   57.23  0.005641  ( 0.062262 -0.041313  0.007582)
 30:    650.78   0.010108   51.08  0.004847  ( 0.042820  0.038337 -0.039290)
 31:    670.93   0.002639   13.34  0.001228  ( 0.008946  0.033866 -0.000873)
 32:    677.40   0.015658   79.13  0.007213  ( 0.004607 -0.029520 -0.079503)
 33:    731.84   0.001288    6.51  0.000549  (-0.021750  0.008176  0.003036)
 34:    807.59   0.001129    5.71  0.000436  ( 0.013608 -0.009409  0.012750)
 35:    873.80   0.001419    7.17  0.000507  (-0.002718  0.022214  0.002458)
 36:    899.14   0.000670    3.38  0.000232  (-0.001690  0.004864 -0.014351)
 37:    937.30   0.000496    2.51  0.000165  (-0.012134 -0.002166  0.003623)
 38:    972.73   0.004210   21.27  0.001351  ( 0.024648  0.010148 -0.025298)
 39:   1019.62   0.001410    7.12  0.000431  (-0.017465 -0.008996 -0.006746)
 40:   1032.45   0.001491    7.54  0.000451  ( 0.013188  0.005901  0.015555)
 41:   1061.35   0.001371    6.93  0.000403  (-0.004690 -0.019498 -0.001013)
 42:   1091.62   0.000211    1.06  0.000060  (-0.007288 -0.001474 -0.002218)
 43:   1130.91   0.000128    0.65  0.000035  ( 0.005702  0.001095  0.001260)
 44:   1152.85   0.000668    3.38  0.000181  ( 0.011459  0.006855  0.001589)
 45:   1184.23   0.042803  216.31  0.011279  ( 0.003019  0.105739 -0.009461)
 46:   1192.67   0.005397   27.27  0.001412  ( 0.002829 -0.035655  0.011527)
 47:   1197.69   0.006058   30.62  0.001579  ( 0.004756  0.037563 -0.012040)
 48:   1220.03   0.001726    8.72  0.000441  (-0.014636 -0.013760 -0.006161)
 49:   1251.60   0.001841    9.30  0.000459  (-0.019286  0.000378 -0.009318)
 50:   1286.51   0.003188   16.11  0.000773  (-0.009467 -0.024861 -0.008103)
 51:   1297.61   0.005279   26.68  0.001270  ( 0.014801  0.002361  0.032326)
 52:   1328.33   0.016449   83.13  0.003864  (-0.044767 -0.010434 -0.041850)
 53:   1361.75   0.007646   38.64  0.001752  ( 0.035802  0.008584  0.019921)
 54:   1399.56   0.012594   63.64  0.002808  (-0.001577 -0.052574  0.006444)
 55:   1402.31   0.008477   42.84  0.001886  ( 0.033848  0.027085  0.002681)
 56:   1428.06   0.009826   49.65  0.002147  (-0.017426 -0.042247  0.007659)
 57:   1454.77   0.002799   14.14  0.000600  (-0.012544  0.020724 -0.003678)
 58:   1455.96   0.004251   21.48  0.000911  (-0.029737 -0.005038 -0.001195)
 59:   1472.80   0.002784   14.07  0.000590  ( 0.009967 -0.014996  0.016300)
 60:   1485.41   0.008504   42.97  0.001786  ( 0.031271 -0.008931  0.026997)
 61:   1486.10   0.005730   28.96  0.001203  (-0.012693 -0.015379 -0.028383)
 62:   1513.82   0.000652    3.30  0.000134  (-0.000131  0.001232  0.011527)
 63:   1535.10   0.076053  384.34  0.015460  (-0.109596 -0.008730 -0.058077)
 64:   1593.37   0.039288  198.55  0.007695  (-0.070837 -0.025161 -0.045208)
 65:   1774.87   0.091463  462.22  0.016081  (-0.063029 -0.033257  0.104893)
 66:   1782.36   0.018919   95.61  0.003312  ( 0.029283  0.031653  0.038117)
 67:   1840.34   0.067850  342.89  0.011505  (-0.088744  0.050432 -0.032959)
 68:   3051.12   0.002900   14.65  0.000297  ( 0.011802 -0.010911  0.006184)
 69:   3062.45   0.001082    5.47  0.000110  (-0.002793 -0.010106 -0.000553)
 70:   3077.40   0.005935   29.99  0.000602  (-0.011175 -0.006876 -0.020729)
 71:   3089.19   0.000549    2.77  0.000055  (-0.006257 -0.000490  0.004010)
 72:   3105.76   0.000095    0.48  0.000009  ( 0.002638  0.001246  0.000994)
 73:   3148.11   0.002406   12.16  0.000238  (-0.008839  0.012655 -0.000422)
 74:   3170.55   0.000421    2.13  0.000041  ( 0.002090 -0.005003 -0.003465)
 75:   3183.09   0.001232    6.23  0.000121  ( 0.002461  0.000646 -0.010693)
 76:   3188.32   0.001147    5.80  0.000112  ( 0.008904  0.004660 -0.003365)
 77:   3245.96   0.000173    0.88  0.000017  (-0.002984  0.000766  0.002675)
 78:   3584.79   0.030999  156.66  0.002699  (-0.022208 -0.034646  0.031702)
 79:   3601.59   0.025807  130.42  0.002236  (-0.002380  0.008076 -0.046531)
 80:   3799.74   0.020521  103.70  0.001685  (-0.025587 -0.031770 -0.004616)

--------------------------
THERMOCHEMISTRY AT 298.15K
--------------------------

Temperature         ... 298.15 K
Pressure            ... 1.00 atm
Total Mass          ... 201.20 AMU

Throughout the following assumptions are being made:
  (1) The electronic state is orbitally nondegenerate
      but the spin degeneracy is treated
  (2) There are no thermally accessible electronically excited states
  (3) Hindered rotations indicated by low frequency modes are not
      treated as such but are treated as vibrations and this may
      cause some error
  (4) All equations used are the standard statistical mechanics
      equations for an ideal gas
  (5) All vibrations are strictly harmonic

freq.      21.55  E(vib)   ...       0.56
freq.      47.99  E(vib)   ...       0.53
freq.      60.18  E(vib)   ...       0.51
freq.      74.27  E(vib)   ...       0.49
freq.      85.03  E(vib)   ...       0.48
freq.      96.06  E(vib)   ...       0.47
freq.     123.70  E(vib)   ...       0.43
freq.     132.67  E(vib)   ...       0.42
freq.     164.79  E(vib)   ...       0.39
freq.     183.74  E(vib)   ...       0.37
freq.     225.91  E(vib)   ...       0.33
freq.     248.64  E(vib)   ...       0.31
freq.     288.20  E(vib)   ...       0.27
freq.     311.38  E(vib)   ...       0.25
freq.     377.60  E(vib)   ...       0.21
freq.     421.81  E(vib)   ...       0.18
freq.     483.66  E(vib)   ...       0.15
freq.     506.19  E(vib)   ...       0.14
freq.     516.33  E(vib)   ...       0.13
freq.     549.47  E(vib)   ...       0.12
freq.     572.85  E(vib)   ...       0.11
freq.     578.55  E(vib)   ...       0.11
freq.     626.55  E(vib)   ...       0.09
freq.     650.78  E(vib)   ...       0.08
freq.     670.93  E(vib)   ...       0.08
freq.     677.40  E(vib)   ...       0.08
freq.     731.84  E(vib)   ...       0.06
freq.     807.59  E(vib)   ...       0.05
freq.     873.80  E(vib)   ...       0.04
freq.     899.14  E(vib)   ...       0.03
freq.     937.30  E(vib)   ...       0.03
freq.     972.73  E(vib)   ...       0.03
freq.    1019.62  E(vib)   ...       0.02
freq.    1032.45  E(vib)   ...       0.02
freq.    1061.35  E(vib)   ...       0.02
freq.    1091.62  E(vib)   ...       0.02
freq.    1130.91  E(vib)   ...       0.01
freq.    1152.85  E(vib)   ...       0.01
freq.    1184.23  E(vib)   ...       0.01
freq.    1192.67  E(vib)   ...       0.01
freq.    1197.69  E(vib)   ...       0.01
freq.    1220.03  E(vib)   ...       0.01
freq.    1251.60  E(vib)   ...       0.01
freq.    1286.51  E(vib)   ...       0.01
freq.    1297.61  E(vib)   ...       0.01
freq.    1328.33  E(vib)   ...       0.01
freq.    1361.75  E(vib)   ...       0.01
freq.    1399.56  E(vib)   ...       0.00
freq.    1402.31  E(vib)   ...       0.00
freq.    1428.06  E(vib)   ...       0.00
freq.    1454.77  E(vib)   ...       0.00
freq.    1455.96  E(vib)   ...       0.00
freq.    1472.80  E(vib)   ...       0.00
freq.    1485.41  E(vib)   ...       0.00
freq.    1486.10  E(vib)   ...       0.00
freq.    1513.82  E(vib)   ...       0.00
freq.    1535.10  E(vib)   ...       0.00
freq.    1593.37  E(vib)   ...       0.00
freq.    1774.87  E(vib)   ...       0.00
freq.    1782.36  E(vib)   ...       0.00
freq.    1840.34  E(vib)   ...       0.00
freq.    3051.12  E(vib)   ...       0.00
freq.    3062.45  E(vib)   ...       0.00
freq.    3077.40  E(vib)   ...       0.00
freq.    3089.19  E(vib)   ...       0.00
freq.    3105.76  E(vib)   ...       0.00
freq.    3148.11  E(vib)   ...       0.00
freq.    3170.55  E(vib)   ...       0.00
freq.    3183.09  E(vib)   ...       0.00
freq.    3188.32  E(vib)   ...       0.00
freq.    3245.96  E(vib)   ...       0.00
freq.    3584.79  E(vib)   ...       0.00
freq.    3601.59  E(vib)   ...       0.00
freq.    3799.74  E(vib)   ...       0.00

------------
INNER ENERGY
------------

The inner energy is: U= E(el) + E(ZPE) + E(vib) + E(rot) + E(trans)
    E(el)   - is the total energy from the electronic structure calculation
              = E(kin-el) + E(nuc-el) + E(el-el) + E(nuc-nuc)
    E(ZPE)  - the the zero temperature vibrational energy from the frequency calculation
    E(vib)  - the the finite temperature correction to E(ZPE) due to population
              of excited vibrational states
    E(rot)  - is the rotational thermal energy
    E(trans)- is the translational thermal energy

Summary of contributions to the inner energy U:
Electronic energy                ...   -723.07792908 Eh
Zero point energy                ...      0.21793117 Eh     136.75 kcal/mol
Thermal vibrational correction   ...      0.01234414 Eh       7.75 kcal/mol
Thermal rotational correction    ...      0.00141627 Eh       0.89 kcal/mol
Thermal translational correction ...      0.00141627 Eh       0.89 kcal/mol
-----------------------------------------------------------------------
Total thermal energy                   -722.84482123 Eh

Summary of corrections to the electronic energy:
(perhaps to be used in another calculation)
Total thermal correction                  0.01517668 Eh       9.52 kcal/mol
Non-thermal (ZPE) correction              0.21793117 Eh     136.75 kcal/mol
-----------------------------------------------------------------------
Total correction                          0.23310785 Eh     146.28 kcal/mol

--------
ENTHALPY
--------

The enthalpy is H = U + kB*T
                kB is Boltzmann's constant
Total free energy                 ...   -722.84482123 Eh
Thermal Enthalpy correction       ...      0.00094421 Eh       0.59 kcal/mol
-----------------------------------------------------------------------
Total Enthalpy                    ...   -722.84387702 Eh

Note: Only C1 symmetry has been detected, increase convergence thresholds
      if your molecule has a higher symmetry. Symmetry factor of 1.0 is
      used for the rotational entropy correction.

Note: Rotational entropy computed according to Herzberg
Infrared and Raman Spectra, Chapter V,1, Van Nostrand Reinhold, 1945
Point Group:  C1, Symmetry Number:   1
Rotational constants in cm-1:     0.026071     0.016802     0.011437

Vibrational entropy computed according to the QRRHO of S. Grimme
Chem.Eur.J. 2012 18 9955

-------
ENTROPY
-------

The entropy contributions are T*S = T*(S(el)+S(vib)+S(rot)+S(trans))
     S(el)   - electronic entropy
     S(vib)  - vibrational entropy
     S(rot)  - rotational entropy
     S(trans)- translational entropy
The entropies will be listed as multiplied by the temperature to get
units of energy

                             ****ORCA TERMINATED NORMALLY****
TOTAL RUN TIME: 0 days 0 hours 34 minutes 22 seconds 861 msec
