                         Program Version 5.0.4 -  RELEASE  -
|  1> ! B3LYP EPR-II OPT
|  2> %pal nprocs 16 end
|  3> *XYZFile 0 2 model.xyz
|  4>
|  5>                          ****END OF INPUT****
 Total Charge           Charge          ....    0
 Multiplicity           Mult            ....    2
 Number of Electrons    NEL             ....  107
FINAL SINGLE POINT ENERGY      -722.842298299389
FINAL SINGLE POINT ENERGY      -722.844206215415
FINAL SINGLE POINT ENERGY      -722.844329721833
FINAL SINGLE POINT ENERGY      -722.844365476452
FINAL SINGLE POINT ENERGY      -722.844421025554
FINAL SINGLE POINT ENERGY      -722.844441939586
FINAL SINGLE POINT ENERGY      -722.844457725952
FINAL SINGLE POINT ENERGY      -722.844469933539
FINAL SINGLE POINT ENERGY      -722.844477052730
FINAL SINGLE POINT ENERGY      -722.844483137206
FINAL SINGLE POINT ENERGY      -722.844486691034
FINAL SINGLE POINT ENERGY      -722.844490753839
FINAL SINGLE POINT ENERGY      -722.844493791066
FINAL SINGLE POINT ENERGY      -722.844497387742
FINAL SINGLE POINT ENERGY      -722.844501690333
FINAL SINGLE POINT ENERGY      -722.844508871570
FINAL SINGLE POINT ENERGY      -722.844515491889
FINAL SINGLE POINT ENERGY      -722.844520549993
                    ***********************HURRAY********************

CARTESIAN COORDINATES (ANGSTROEM)
---------------------------------
  N     -4.538675   -4.774875   -0.641114
  C     -3.085752   -4.922337   -0.762098
  C     -2.552771   -4.915971    0.711314
  O     -3.240825   -5.402085    1.612675
  C     -2.456502   -3.922880   -1.684807
  H     -1.770801   -4.282302   -2.444856
  C     -2.776896   -2.459424   -1.650964
  H     -3.180384   -2.113085   -2.611887
  H     -3.549367   -2.236415   -0.904059
  C     -1.567601   -1.591287   -1.316090
  O     -1.760962   -0.293154   -1.645775
  O     -0.532802   -1.980280   -0.800198
  H     -4.891316   -4.998504    0.283202
  H     -2.847527   -5.926304   -1.144587
  C     -5.364044   -4.903203   -1.729843
  N     -1.308824   -4.415216    0.893987
  H     -0.958398    0.185720   -1.380562
  H     -0.903978   -3.848059    0.154954
  O     -4.939820   -4.932549   -2.884179
  C     -6.856478   -4.981038   -1.419967
  H     -7.373008   -4.214045   -2.002594
  H     -7.226665   -5.954728   -1.754142
  H     -7.089486   -4.851137   -0.360093
  C     -0.696475   -4.376656    2.219299
  H     -0.797823   -5.350914    2.701649
  H      0.362118   -4.135245    2.107799
  H     -1.171090   -3.626761    2.862375

 Multiplicity           Mult            ....    2
 Number of Electrons    NEL             ....  107
 Basis Dimension        Dim             ....  329

ORBITAL ENERGIES
----------------
                 SPIN UP ORBITALS
  NO   OCC          E(Eh)            E(eV)
   0   1.0000     -19.210250      -522.7375
   1   1.0000     -19.159529      -521.3573
   2   1.0000     -19.120187      -520.2867
   3   1.0000     -19.109044      -519.9835
   4   1.0000     -14.361779      -390.8039
   5   1.0000     -14.355754      -390.6399
   6   1.0000     -10.350330      -281.6468
   7   1.0000     -10.300740      -280.2974
   8   1.0000     -10.293708      -280.1060
   9   1.0000     -10.247601      -278.8514
  10   1.0000     -10.220640      -278.1177
  11   1.0000     -10.217850      -278.0418
  12   1.0000     -10.213140      -277.9137
  13   1.0000     -10.190457      -277.2964
  14   1.0000      -1.126913       -30.6649
  15   1.0000      -1.043318       -28.3901
  16   1.0000      -1.036067       -28.1928
  17   1.0000      -1.029542       -28.0153
  18   1.0000      -0.924384       -25.1538
  19   1.0000      -0.921997       -25.0888
  20   1.0000      -0.813312       -22.1313
  21   1.0000      -0.762076       -20.7372
  22   1.0000      -0.727163       -19.7871
  23   1.0000      -0.699499       -19.0343
  24   1.0000      -0.656101       -17.8534
  25   1.0000      -0.606492       -16.5035
  26   1.0000      -0.588442       -16.0123
  27   1.0000      -0.559850       -15.2343
  28   1.0000      -0.536025       -14.5860
  29   1.0000      -0.514870       -14.0103
  30   1.0000      -0.509684       -13.8692
  31   1.0000      -0.494510       -13.4563
  32   1.0000      -0.485700       -13.2166
  33   1.0000      -0.474119       -12.9014
  34   1.0000      -0.457176       -12.4404
  35   1.0000      -0.451272       -12.2797
  36   1.0000      -0.446723       -12.1560
  37   1.0000      -0.438313       -11.9271
  38   1.0000      -0.419394       -11.4123
  39   1.0000      -0.411000       -11.1839
  40   1.0000      -0.402682       -10.9575
  41   1.0000      -0.402167       -10.9435
  42   1.0000      -0.396479       -10.7887
  43   1.0000      -0.394151       -10.7254
  44   1.0000      -0.374970       -10.2034
  45   1.0000      -0.372860       -10.1460
  46   1.0000      -0.350516        -9.5380
  47   1.0000      -0.343919        -9.3585
  48   1.0000      -0.304058        -8.2738
  49   1.0000      -0.285256        -7.7622
  50   1.0000      -0.267275        -7.2729
  51   1.0000      -0.259378        -7.0580
  52   1.0000      -0.255491        -6.9523
  53   1.0000      -0.204675        -5.5695
  54   0.0000      -0.017560        -0.4778
  55   0.0000       0.000239         0.0065
  56   0.0000       0.011612         0.3160
  57   0.0000       0.021474         0.5843
  58   0.0000       0.022712         0.6180

                 SPIN DOWN ORBITALS
  NO   OCC          E(Eh)            E(eV)
   0   1.0000     -19.210196      -522.7360
   1   1.0000     -19.159463      -521.3555
   2   1.0000     -19.119639      -520.2718
   3   1.0000     -19.108390      -519.9657
   4   1.0000     -14.361495      -390.7961
   5   1.0000     -14.355020      -390.6200
   6   1.0000     -10.349296      -281.6187
   7   1.0000     -10.299562      -280.2653
   8   1.0000     -10.293733      -280.1067
   9   1.0000     -10.248587      -278.8782
  10   1.0000     -10.221536      -278.1421
  11   1.0000     -10.217863      -278.0422
  12   1.0000     -10.199128      -277.5324
  13   1.0000     -10.190354      -277.2936
  14   1.0000      -1.126493       -30.6534
  15   1.0000      -1.042062       -28.3559
  16   1.0000      -1.035816       -28.1860
  17   1.0000      -1.028512       -27.9872
  18   1.0000      -0.923433       -25.1279
  19   1.0000      -0.920017       -25.0349
  20   1.0000      -0.801118       -21.7995
  21   1.0000      -0.760439       -20.6926
  22   1.0000      -0.725754       -19.7488
  23   1.0000      -0.694315       -18.8933
  24   1.0000      -0.648838       -17.6558
  25   1.0000      -0.600742       -16.3470
  26   1.0000      -0.586581       -15.9617
  27   1.0000      -0.552400       -15.0316
  28   1.0000      -0.531268       -14.4565
  29   1.0000      -0.513233       -13.9658
  30   1.0000      -0.507338       -13.8054
  31   1.0000      -0.491375       -13.3710
  32   1.0000      -0.484006       -13.1705
  33   1.0000      -0.473153       -12.8751
  34   1.0000      -0.455139       -12.3850
  35   1.0000      -0.450103       -12.2479
  36   1.0000      -0.445641       -12.1265
  37   1.0000      -0.436156       -11.8684
  38   1.0000      -0.416191       -11.3251
  39   1.0000      -0.408901       -11.1268
  40   1.0000      -0.401429       -10.9234
  41   1.0000      -0.399242       -10.8639
  42   1.0000      -0.395454       -10.7609
  43   1.0000      -0.392685       -10.6855
  44   1.0000      -0.372265       -10.1298
  45   1.0000      -0.370609       -10.0848
  46   1.0000      -0.349081        -9.4990
  47   1.0000      -0.343802        -9.3553
  48   1.0000      -0.303237        -8.2515
  49   1.0000      -0.275636        -7.5004
  50   1.0000      -0.265861        -7.2345
  51   1.0000      -0.255641        -6.9564
  52   1.0000      -0.251258        -6.8371
  53   0.0000      -0.068358        -1.8601
  54   0.0000      -0.015606        -0.4247
  55   0.0000       0.001309         0.0356
  56   0.0000       0.012440         0.3385
  57   0.0000       0.022137         0.6024

MULLIKEN ATOMIC CHARGES AND SPIN POPULATIONS
--------------------------------------------
   0 N :   -0.150474    0.021133
   1 C :   -0.050377   -0.057984
   2 C :    0.016659    0.035583
   3 O :   -0.331481    0.017605
   4 C :   -0.140608    0.985318
   5 H :    0.127807   -0.048651
   6 C :   -0.267956   -0.046076
   7 H :    0.197550    0.030036
   8 H :    0.189644    0.000999
   9 C :    0.127828    0.025853
  10 O :   -0.257036    0.000769
  11 O :   -0.267840   -0.000496
  12 H :    0.249016   -0.000316
  13 H :    0.175396    0.006811
  14 C :    0.187990   -0.000384
  15 N :   -0.073137    0.008600
  16 H :    0.290870    0.000791
  17 H :    0.251101    0.000642
  18 O :   -0.305433    0.015618
  19 C :   -0.559916    0.003773
  20 H :    0.185167    0.000308
  21 H :    0.187203   -0.000327
  22 H :    0.151198    0.000081
  23 C :   -0.440756   -0.000868
  24 H :    0.185053    0.000948
  25 H :    0.151214    0.000280
  26 H :    0.171316   -0.000047
Sum of atomic charges         :   -0.0000000

LOEWDIN ATOMIC CHARGES AND SPIN POPULATIONS
-------------------------------------------
   0 N :    0.047493    0.019582
   1 C :   -0.052636    0.010881
   2 C :   -0.095091    0.038700
   3 O :   -0.193429    0.017426
   4 C :   -0.020744    0.793204
   5 H :    0.046593    0.007455
   6 C :   -0.045330    0.010061
   7 H :    0.076677    0.024878
   8 H :    0.079620    0.000362
   9 C :   -0.077926    0.032092
  10 O :    0.026531    0.001111
  11 O :   -0.162089    0.001555
  12 H :    0.090919    0.000603
  13 H :    0.075959    0.003293
  14 C :   -0.099848    0.001611
  15 N :    0.052672    0.009080
  16 H :    0.104371    0.000695
  17 H :    0.090516    0.005218
  18 O :   -0.172797    0.017852
  19 C :   -0.041650    0.003239
  20 H :    0.054376    0.000259
  21 H :    0.055781   -0.000045
  22 H :    0.034656    0.000066
  23 C :    0.010802    0.000245
  24 H :    0.043897    0.000444
  25 H :    0.035149    0.000218
  26 H :    0.035528   -0.000086

  Mayer bond orders larger than 0.100000
B(  0-N ,  1-C ) :   1.0122 B(  0-N , 12-H ) :   0.8881 B(  0-N , 14-C ) :   1.1861
B(  1-C ,  2-C ) :   0.8686 B(  1-C ,  4-C ) :   1.0172 B(  1-C , 13-H ) :   0.9488
B(  2-C ,  3-O ) :   1.8235 B(  2-C , 15-N ) :   1.2460 B(  4-C ,  5-H ) :   0.9783
B(  4-C ,  6-C ) :   0.9870 B(  6-C ,  7-H ) :   0.9472 B(  6-C ,  8-H ) :   0.9519
B(  6-C ,  9-C ) :   0.8834 B(  9-C , 10-O ) :   1.1604 B(  9-C , 11-O ) :   1.9216
B( 10-O , 16-H ) :   0.8936 B( 14-C , 18-O ) :   1.8753 B( 14-C , 19-C ) :   0.8950
B( 15-N , 17-H ) :   0.8854 B( 15-N , 23-C ) :   0.9520 B( 19-C , 20-H ) :   0.9603
B( 19-C , 21-H ) :   0.9563 B( 19-C , 22-H ) :   0.9746 B( 23-C , 24-H ) :   0.9564
B( 23-C , 25-H ) :   0.9666 B( 23-C , 26-H ) :   0.9541

FINAL SINGLE POINT ENERGY      -722.844521747913

DIPOLE MOMENT
-------------
                                X             Y             Z
Electronic contribution:      3.13878       2.64196      -3.09859
Nuclear contribution   :     -2.70369      -1.62696       3.54248
                        -----------------------------------------
Total Dipole Moment    :      0.43509       1.01500       0.44390
                        -----------------------------------------
Magnitude (a.u.)       :      1.19020
Magnitude (Debye)      :      3.02524

Rotational constants in cm-1:     0.024889     0.016427     0.010906
Rotational constants in MHz :   746.159974   492.455390   326.968092

                             ****ORCA TERMINATED NORMALLY****
TOTAL RUN TIME: 0 days 0 hours 11 minutes 32 seconds 654 msec
