                         Program Version 5.0.4 -  RELEASE  -
|  1> ! B3LYP EPR-II AUTOAUX
|  2> %pal nprocs 16 end
|  3> *XYZFile 0 2 opt.xyz
|  4> %EPRNMR
|  5>         GTENSOR   TRUE
|  6>         NUCLEI    = 1,9,10,11,12,13,14,15,16,17,30,31,32 {SHIFT, AISO, ADIP, AORB}
|  7>         ORI       GIAO
|  8> END
|  9>
| 10>                          ****END OF INPUT****

CARTESIAN COORDINATES (ANGSTROEM)
---------------------------------
  N      1.798749   -0.544240    0.345043
  C      1.086202    0.344023   -0.557268
  C      0.783819    1.634613    0.232269
  O      0.902380    1.690630    1.458669
  C     -0.208401   -0.298798   -1.128978
  C     -1.262818   -0.595480   -0.103867
  C     -2.650034   -0.991108   -0.515497
  C     -3.669939   -0.928270    0.633786
  N     -5.011866   -1.304041    0.153957
  H     -0.950785   -0.778725    0.922683
  H     -2.642582   -2.021471   -0.921684
  H     -3.006195   -0.357225   -1.339199
  H     -3.720214    0.101081    1.006315
  H     -3.304395   -1.554414    1.466082
  H     -5.680877   -1.229316    0.915557
  H     -5.009081   -2.283029   -0.122414
  H      1.797475   -0.260400    1.316924
  C      2.641120   -1.519048   -0.113120
  N      0.364044    2.692601   -0.514298
  H      0.320314    2.593945   -1.516122
  O      2.771314   -1.767354   -1.313269
  C      3.402700   -2.294132    0.957609
  H      3.133567   -3.351001    0.877864
  H      4.472860   -2.208922    0.750904
  H      3.200363   -1.946534    1.974103
  C      0.001690    3.971592    0.090619
  H      0.886578    4.508770    0.447910
  H     -0.510710    4.582551   -0.655080
  H     -0.663804    3.806567    0.940942
  H      1.744180    0.574681   -1.403886
  H     -0.620166    0.353870   -1.913339
  H      0.109804   -1.216597   -1.650174

 Total Charge           Charge          ....    0
 Multiplicity           Mult            ....    2
 Number of Electrons    NEL             ....  109
 Basis Dimension        Dim             ....  364

ORBITAL ENERGIES
----------------
                 SPIN UP ORBITALS
  NO   OCC          E(Eh)            E(eV)
   0   1.0000     -19.121079      -520.3110
   1   1.0000     -19.100209      -519.7431
   2   1.0000     -14.370699      -391.0466
   3   1.0000     -14.349787      -390.4776
   4   1.0000     -14.308263      -389.3476
   5   1.0000     -10.301536      -280.3190
   6   1.0000     -10.288299      -279.9589
   7   1.0000     -10.239888      -278.6415
   8   1.0000     -10.225351      -278.2460
   9   1.0000     -10.206289      -277.7272
  10   1.0000     -10.195593      -277.4362
  11   1.0000     -10.191458      -277.3237
  12   1.0000     -10.185820      -277.1703
  13   1.0000     -10.184398      -277.1316
  14   1.0000      -1.044032       -28.4096
  15   1.0000      -1.022127       -27.8135
  16   1.0000      -0.929854       -25.3026
  17   1.0000      -0.916878       -24.9495
  18   1.0000      -0.876116       -23.8403
  19   1.0000      -0.800589       -21.7851
  20   1.0000      -0.760342       -20.6900
  21   1.0000      -0.727106       -19.7856
  22   1.0000      -0.714127       -19.4324
  23   1.0000      -0.666950       -18.1486
  24   1.0000      -0.616261       -16.7693
  25   1.0000      -0.597574       -16.2608
  26   1.0000      -0.584230       -15.8977
  27   1.0000      -0.558302       -15.1922
  28   1.0000      -0.536890       -14.6095
  29   1.0000      -0.489395       -13.3171
  30   1.0000      -0.480867       -13.0851
  31   1.0000      -0.472271       -12.8512
  32   1.0000      -0.463361       -12.6087
  33   1.0000      -0.456536       -12.4230
  34   1.0000      -0.453313       -12.3353
  35   1.0000      -0.446588       -12.1523
  36   1.0000      -0.433934       -11.8079
  37   1.0000      -0.426266       -11.5993
  38   1.0000      -0.422172       -11.4879
  39   1.0000      -0.405578       -11.0363
  40   1.0000      -0.401334       -10.9209
  41   1.0000      -0.396420       -10.7871
  42   1.0000      -0.387258       -10.5378
  43   1.0000      -0.374983       -10.2038
  44   1.0000      -0.370765       -10.0890
  45   1.0000      -0.361835        -9.8460
  46   1.0000      -0.348915        -9.4945
  47   1.0000      -0.343768        -9.3544
  48   1.0000      -0.331154        -9.0111
  49   1.0000      -0.270208        -7.3527
  50   1.0000      -0.268611        -7.3093
  51   1.0000      -0.252038        -6.8583
  52   1.0000      -0.246225        -6.7001
  53   1.0000      -0.238150        -6.4804
  54   1.0000      -0.185921        -5.0592
  55   0.0000       0.006375         0.1735
  56   0.0000       0.012074         0.3285
  57   0.0000       0.025352         0.6899
  58   0.0000       0.026829         0.7300
  59   0.0000       0.030786         0.8377

                 SPIN DOWN ORBITALS
  NO   OCC          E(Eh)            E(eV)
   0   1.0000     -19.120992      -520.3086
   1   1.0000     -19.100111      -519.7404
   2   1.0000     -14.370684      -391.0462
   3   1.0000     -14.349747      -390.4765
   4   1.0000     -14.308218      -389.3464
   5   1.0000     -10.301545      -280.3193
   6   1.0000     -10.288306      -279.9590
   7   1.0000     -10.239712      -278.6367
   8   1.0000     -10.225350      -278.2459
   9   1.0000     -10.206059      -277.7210
  10   1.0000     -10.196426      -277.4589
  11   1.0000     -10.185820      -277.1703
  12   1.0000     -10.185236      -277.1544
  13   1.0000     -10.177700      -276.9493
  14   1.0000      -1.043883       -28.4055
  15   1.0000      -1.021990       -27.8098
  16   1.0000      -0.929793       -25.3009
  17   1.0000      -0.916641       -24.9431
  18   1.0000      -0.875723       -23.8296
  19   1.0000      -0.792116       -21.5546
  20   1.0000      -0.754573       -20.5330
  21   1.0000      -0.727014       -19.7831
  22   1.0000      -0.712987       -19.4014
  23   1.0000      -0.662723       -18.0336
  24   1.0000      -0.611512       -16.6401
  25   1.0000      -0.597518       -16.2593
  26   1.0000      -0.579922       -15.7805
  27   1.0000      -0.547580       -14.9004
  28   1.0000      -0.536424       -14.5968
  29   1.0000      -0.488179       -13.2840
  30   1.0000      -0.479704       -13.0534
  31   1.0000      -0.471971       -12.8430
  32   1.0000      -0.462135       -12.5753
  33   1.0000      -0.455944       -12.4069
  34   1.0000      -0.449457       -12.2304
  35   1.0000      -0.445735       -12.1291
  36   1.0000      -0.427675       -11.6376
  37   1.0000      -0.424065       -11.5394
  38   1.0000      -0.419764       -11.4224
  39   1.0000      -0.405226       -11.0268
  40   1.0000      -0.399291       -10.8653
  41   1.0000      -0.394889       -10.7455
  42   1.0000      -0.385179       -10.4812
  43   1.0000      -0.372371       -10.1327
  44   1.0000      -0.368916       -10.0387
  45   1.0000      -0.359069        -9.7708
  46   1.0000      -0.344324        -9.3695
  47   1.0000      -0.340342        -9.2612
  48   1.0000      -0.328852        -8.9485
  49   1.0000      -0.269988        -7.3468
  50   1.0000      -0.267988        -7.2923
  51   1.0000      -0.250679        -6.8213
  52   1.0000      -0.246006        -6.6942
  53   1.0000      -0.237651        -6.4668
  54   0.0000      -0.044594        -1.2135
  55   0.0000       0.007282         0.1982
  56   0.0000       0.012244         0.3332
  57   0.0000       0.025564         0.6956
  58   0.0000       0.027738         0.7548

MULLIKEN ATOMIC CHARGES AND SPIN POPULATIONS
--------------------------------------------
   0 N :   -0.111633    0.000108
   1 C :   -0.146455    0.002223
   2 C :    0.118964    0.011616
   3 O :   -0.335713    0.001377
   4 C :   -0.271333   -0.060850
   5 C :   -0.078666    0.998473
   6 C :   -0.316928   -0.060801
   7 C :   -0.287544    0.009472
   8 N :   -0.459165    0.001335
   9 H :    0.127242   -0.048169
  10 H :    0.148090    0.054733
  11 H :    0.163027    0.019562
  12 H :    0.166388   -0.000823
  13 H :    0.136337   -0.000692
  14 H :    0.210293   -0.000257
  15 H :    0.210370    0.000123
  16 H :    0.251838    0.000094
  17 C :    0.175070    0.000095
  18 N :   -0.104252   -0.002630
  19 H :    0.233863    0.000228
  20 O :   -0.327443    0.003130
  21 C :   -0.555494   -0.000043
  22 H :    0.185401    0.000013
  23 H :    0.186490    0.000007
  24 H :    0.149312    0.000024
  25 C :   -0.443533    0.000359
  26 H :    0.177212    0.000035
  27 H :    0.144837    0.000011
  28 H :    0.188744    0.000125
  29 H :    0.156516   -0.000160
  30 H :    0.127154    0.020386
  31 H :    0.181012    0.050896
Sum of atomic charges         :    0.0000000

LOEWDIN ATOMIC CHARGES AND SPIN POPULATIONS
-------------------------------------------
   0 N :    0.064099    0.001337
   1 C :   -0.046375    0.006433
   2 C :   -0.089492    0.004574
   3 O :   -0.189811    0.003077
   4 C :   -0.068887    0.009188
   5 C :   -0.050550    0.822470
   6 C :   -0.097569    0.008879
   7 C :   -0.057016    0.008240
   8 N :   -0.096185    0.001417
   9 H :    0.045438    0.008797
  10 H :    0.051562    0.043982
  11 H :    0.054056    0.016967
  12 H :    0.040324   -0.000015
  13 H :    0.023802   -0.000176
  14 H :    0.049373   -0.000024
  15 H :    0.050975    0.000354
  16 H :    0.090346    0.000044
  17 C :   -0.103527    0.000192
  18 N :    0.041833    0.000611
  19 H :    0.079244    0.000525
  20 O :   -0.198771    0.003017
  21 C :   -0.042843    0.000012
  22 H :    0.054116   -0.000000
  23 H :    0.054397   -0.000006
  24 H :    0.033762    0.000025
  25 C :    0.011980    0.000395
  26 H :    0.036275   -0.000007
  27 H :    0.032711    0.000013
  28 H :    0.044903    0.000015
  29 H :    0.066874   -0.000132
  30 H :    0.047416    0.018068
  31 H :    0.067541    0.041729

  Mayer bond orders larger than 0.100000
B(  0-N ,  1-C ) :   1.0317 B(  0-N , 16-H ) :   0.8909 B(  0-N , 17-C ) :   1.2075
B(  1-C ,  2-C ) :   0.9059 B(  1-C ,  4-C ) :   0.9402 B(  1-C , 20-O ) :   0.1426
B(  1-C , 29-H ) :   0.9714 B(  2-C ,  3-O ) :   1.8335 B(  2-C , 18-N ) :   1.2144
B(  4-C ,  5-C ) :   0.9829 B(  4-C , 30-H ) :   0.9714 B(  4-C , 31-H ) :   0.9435
B(  5-C ,  6-C ) :   0.9723 B(  5-C ,  9-H ) :   0.9913 B(  6-C ,  7-C ) :   0.9604
B(  6-C , 10-H ) :   0.9584 B(  6-C , 11-H ) :   0.9655 B(  7-C ,  8-N ) :   1.0117
B(  7-C , 12-H ) :   0.9580 B(  7-C , 13-H ) :   0.9436 B(  8-N , 14-H ) :   0.9438
B(  8-N , 15-H ) :   0.9477 B( 17-C , 20-O ) :   1.8566 B( 17-C , 21-C ) :   0.8931
B( 18-N , 19-H ) :   0.9346 B( 18-N , 25-C ) :   0.9646 B( 21-C , 22-H ) :   0.9589
B( 21-C , 23-H ) :   0.9586 B( 21-C , 24-H ) :   0.9760 B( 25-C , 26-H ) :   0.9533
B( 25-C , 27-H ) :   0.9672 B( 25-C , 28-H ) :   0.9488

FINAL SINGLE POINT ENERGY      -668.217669058488

DIPOLE MOMENT
-------------
                                X             Y             Z
Electronic contribution:      9.92291       1.43328      -1.00899
Nuclear contribution   :    -10.59094      -0.79078       1.27181
                        -----------------------------------------
Total Dipole Moment    :     -0.66803       0.64250       0.26282
                        -----------------------------------------
Magnitude (a.u.)       :      0.96340
Magnitude (Debye)      :      2.44877

Rotational constants in cm-1:     0.021101     0.012722     0.009061
Rotational constants in MHz :   632.606217   381.391096   271.638687

CHEMICAL SHIELDING SUMMARY (ppm)  --  Orbital contribution
----------------------------------------------------------

  Nucleus  Element    Isotropic     Anisotropy
  -------  -------  ------------   ------------
      0       N          127.150        116.314
      8       N          224.403         32.386
      9       H           27.467          9.632
     10       H           29.648          5.552
     11       H           29.553          3.336
     12       H           29.294          5.158
     13       H           28.811          6.707
     14       H           31.211         13.902
     15       H           31.718         11.412
     16       H           25.238          7.107
     29       H           27.578          4.369
     30       H           29.715          4.350
     31       H           28.454          5.547

                             ****ORCA TERMINATED NORMALLY****
TOTAL RUN TIME: 0 days 0 hours 6 minutes 43 seconds 550 msec
