                         Program Version 5.0.4 -  RELEASE  -
|  1> ! M062X def2-TZVP OPT FREQ
|  2> %pal nprocs 16 end
|  3> *XYZFile 0 2 opt.xyz
|  4>
|  5>                          ****END OF INPUT****
 Total Charge           Charge          ....    0
 Multiplicity           Mult            ....    2
 Number of Electrons    NEL             ....  109
FINAL SINGLE POINT ENERGY      -668.443053130092
FINAL SINGLE POINT ENERGY      -668.446079387262
FINAL SINGLE POINT ENERGY      -668.446256667922
FINAL SINGLE POINT ENERGY      -668.446270744902
FINAL SINGLE POINT ENERGY      -668.446352010356
FINAL SINGLE POINT ENERGY      -668.446400191341
FINAL SINGLE POINT ENERGY      -668.446415096704
FINAL SINGLE POINT ENERGY      -668.446417664510
FINAL SINGLE POINT ENERGY      -668.446416372639
FINAL SINGLE POINT ENERGY      -668.446413501585
FINAL SINGLE POINT ENERGY      -668.446416466296
FINAL SINGLE POINT ENERGY      -668.446423036439
FINAL SINGLE POINT ENERGY      -668.446430467538
FINAL SINGLE POINT ENERGY      -668.446437739680
FINAL SINGLE POINT ENERGY      -668.446442423273
                    ***********************HURRAY********************

CARTESIAN COORDINATES (ANGSTROEM)
---------------------------------
  N      1.865205   -0.547766    0.350089
  C      1.143818    0.313292   -0.552338
  C      0.749296    1.562381    0.234750
  O      0.963560    1.669074    1.428466
  C     -0.092831   -0.384651   -1.143615
  C     -1.149886   -0.635920   -0.129752
  C     -2.548674   -0.938914   -0.527960
  C     -3.549471   -0.694324    0.593532
  N     -4.903446   -0.981463    0.131992
  H     -0.840039   -0.852615    0.887023
  H     -2.636937   -1.989617   -0.850474
  H     -2.839823   -0.341621   -1.397726
  H     -3.504688    0.357928    0.883001
  H     -3.247966   -1.280226    1.472529
  H     -5.583420   -0.775271    0.852671
  H     -4.998565   -1.964590   -0.094986
  H      1.888499   -0.252693    1.315523
  C      2.677881   -1.525749   -0.117539
  N      0.133680    2.526008   -0.477099
  H     -0.018660    2.387931   -1.460423
  O      2.774715   -1.773683   -1.305174
  C      3.443262   -2.303161    0.926616
  H      3.102742   -3.337746    0.902854
  H      4.497860   -2.294619    0.656497
  H      3.318107   -1.905893    1.932244
  C     -0.336968    3.736267    0.165280
  H      0.499644    4.343778    0.511766
  H     -0.926516    4.307879   -0.546793
  H     -0.953777    3.482834    1.026854
  H      1.808898    0.596060   -1.374013
  H     -0.498919    0.214916   -1.965727
  H      0.268711   -1.313008   -1.605029

 Multiplicity           Mult            ....    2
 Number of Electrons    NEL             ....  109
 Basis Dimension        Dim             ....  542

ORBITAL ENERGIES
----------------
                 SPIN UP ORBITALS
  NO   OCC          E(Eh)            E(eV)
   0   1.0000     -19.604791      -533.4735
   1   1.0000     -19.584442      -532.9198
   2   1.0000     -14.783406      -402.2769
   3   1.0000     -14.765957      -401.8021
   4   1.0000     -14.725802      -400.7094
   5   1.0000     -10.649818      -289.7963
   6   1.0000     -10.637569      -289.4630
   7   1.0000     -10.589920      -288.1664
   8   1.0000     -10.576382      -287.7980
   9   1.0000     -10.557978      -287.2972
  10   1.0000     -10.545544      -286.9588
  11   1.0000     -10.544691      -286.9356
  12   1.0000     -10.536565      -286.7145
  13   1.0000     -10.534720      -286.6643
  14   1.0000      -1.179119       -32.0855
  15   1.0000      -1.157880       -31.5075
  16   1.0000      -1.045761       -28.4566
  17   1.0000      -1.035485       -28.1770
  18   1.0000      -0.991582       -26.9823
  19   1.0000      -0.912011       -24.8171
  20   1.0000      -0.866350       -23.5746
  21   1.0000      -0.828096       -22.5336
  22   1.0000      -0.811941       -22.0940
  23   1.0000      -0.761854       -20.7311
  24   1.0000      -0.708912       -19.2905
  25   1.0000      -0.684230       -18.6188
  26   1.0000      -0.674359       -18.3502
  27   1.0000      -0.644072       -17.5261
  28   1.0000      -0.621319       -16.9070
  29   1.0000      -0.575273       -15.6540
  30   1.0000      -0.565606       -15.3909
  31   1.0000      -0.554472       -15.0880
  32   1.0000      -0.547263       -14.8918
  33   1.0000      -0.537475       -14.6254
  34   1.0000      -0.533795       -14.5253
  35   1.0000      -0.527607       -14.3569
  36   1.0000      -0.512904       -13.9568
  37   1.0000      -0.501174       -13.6376
  38   1.0000      -0.498434       -13.5631
  39   1.0000      -0.477915       -13.0047
  40   1.0000      -0.474711       -12.9175
  41   1.0000      -0.472784       -12.8651
  42   1.0000      -0.460029       -12.5180
  43   1.0000      -0.450111       -12.2482
  44   1.0000      -0.441970       -12.0266
  45   1.0000      -0.435222       -11.8430
  46   1.0000      -0.417069       -11.3490
  47   1.0000      -0.413252       -11.2452
  48   1.0000      -0.400153       -10.8887
  49   1.0000      -0.347065        -9.4441
  50   1.0000      -0.337942        -9.1959
  51   1.0000      -0.328248        -8.9321
  52   1.0000      -0.319309        -8.6888
  53   1.0000      -0.309906        -8.4330
  54   1.0000      -0.244621        -6.6565
  55   0.0000       0.042208         1.1485
  56   0.0000       0.054484         1.4826
  57   0.0000       0.063748         1.7347
  58   0.0000       0.069017         1.8780
  59   0.0000       0.071366         1.9420

                 SPIN DOWN ORBITALS
  NO   OCC          E(Eh)            E(eV)
   0   1.0000     -19.604742      -533.4722
   1   1.0000     -19.584349      -532.9172
   2   1.0000     -14.783359      -402.2756
   3   1.0000     -14.765938      -401.8016
   4   1.0000     -14.725764      -400.7084
   5   1.0000     -10.649838      -289.7968
   6   1.0000     -10.637574      -289.4631
   7   1.0000     -10.589709      -288.1606
   8   1.0000     -10.576376      -287.7978
   9   1.0000     -10.557719      -287.2901
  10   1.0000     -10.546156      -286.9755
  11   1.0000     -10.537987      -286.7532
  12   1.0000     -10.536564      -286.7145
  13   1.0000     -10.535349      -286.6814
  14   1.0000      -1.179004       -32.0823
  15   1.0000      -1.157714       -31.5030
  16   1.0000      -1.045613       -28.4526
  17   1.0000      -1.035133       -28.1674
  18   1.0000      -0.990960       -26.9654
  19   1.0000      -0.901479       -24.5305
  20   1.0000      -0.859829       -23.3971
  21   1.0000      -0.827850       -22.5269
  22   1.0000      -0.810250       -22.0480
  23   1.0000      -0.757250       -20.6058
  24   1.0000      -0.703494       -19.1430
  25   1.0000      -0.684155       -18.6168
  26   1.0000      -0.668115       -18.1803
  27   1.0000      -0.632233       -17.2039
  28   1.0000      -0.620498       -16.8846
  29   1.0000      -0.573216       -15.5980
  30   1.0000      -0.563775       -15.3411
  31   1.0000      -0.553929       -15.0732
  32   1.0000      -0.546020       -14.8580
  33   1.0000      -0.536464       -14.5979
  34   1.0000      -0.529025       -14.3955
  35   1.0000      -0.526312       -14.3217
  36   1.0000      -0.503947       -13.7131
  37   1.0000      -0.497926       -13.5492
  38   1.0000      -0.495041       -13.4708
  39   1.0000      -0.475832       -12.9480
  40   1.0000      -0.472827       -12.8663
  41   1.0000      -0.470642       -12.8068
  42   1.0000      -0.458500       -12.4764
  43   1.0000      -0.447124       -12.1668
  44   1.0000      -0.439179       -11.9507
  45   1.0000      -0.432600       -11.7716
  46   1.0000      -0.411624       -11.2009
  47   1.0000      -0.408632       -11.1194
  48   1.0000      -0.397254       -10.8098
  49   1.0000      -0.345852        -9.4111
  50   1.0000      -0.337178        -9.1751
  51   1.0000      -0.327648        -8.9158
  52   1.0000      -0.317770        -8.6470
  53   1.0000      -0.309274        -8.4158
  54   0.0000      -0.010651        -0.2898
  55   0.0000       0.039896         1.0856
  56   0.0000       0.053210         1.4479
  57   0.0000       0.062420         1.6985
  58   0.0000       0.069438         1.8895

MULLIKEN ATOMIC CHARGES AND SPIN POPULATIONS
--------------------------------------------
   0 N :   -0.390737   -0.006002
   1 C :   -0.111055    0.036512
   2 C :    0.398089    0.004783
   3 O :   -0.408934    0.001717
   4 C :   -0.296623   -0.091781
   5 C :   -0.244152    1.040467
   6 C :   -0.229824   -0.089647
   7 C :   -0.143153    0.026232
   8 N :   -0.551959    0.003280
   9 H :    0.170729   -0.051841
  10 H :    0.139625    0.056330
  11 H :    0.142643    0.015940
  12 H :    0.130547   -0.005497
  13 H :    0.123311   -0.001992
  14 H :    0.227363   -0.000475
  15 H :    0.226017   -0.000600
  16 H :    0.268366   -0.000289
  17 C :    0.393356   -0.002859
  18 N :   -0.356534    0.001488
  19 H :    0.246076   -0.000906
  20 O :   -0.413743    0.001624
  21 C :   -0.457375    0.000349
  22 H :    0.157424   -0.000018
  23 H :    0.159812   -0.000011
  24 H :    0.128549   -0.000017
  25 C :   -0.290030   -0.001852
  26 H :    0.155248    0.000153
  27 H :    0.136803    0.000250
  28 H :    0.160361    0.001548
  29 H :    0.187854   -0.000134
  30 H :    0.143217    0.010278
  31 H :    0.198729    0.052969
Sum of atomic charges         :   -0.0000000

LOEWDIN ATOMIC CHARGES AND SPIN POPULATIONS
-------------------------------------------
   0 N :    0.145051    0.001228
   1 C :   -0.245407    0.007850
   2 C :   -0.440125    0.009391
   3 O :    0.060998    0.001640
   4 C :   -0.255072    0.062880
   5 C :   -0.131202    0.748783
   6 C :   -0.290567    0.062204
   7 C :   -0.342912    0.009948
   8 N :   -0.182325    0.002154
   9 H :    0.134952   -0.000102
  10 H :    0.144130    0.035439
  11 H :    0.145103    0.009340
  12 H :    0.130039    0.000754
  13 H :    0.115509   -0.000351
  14 H :    0.147140   -0.000121
  15 H :    0.148161    0.000302
  16 H :    0.194693   -0.000030
  17 C :   -0.481220    0.000329
  18 N :    0.100971    0.002455
  19 H :    0.185839    0.000210
  20 O :    0.051922    0.002477
  21 C :   -0.262666    0.000012
  22 H :    0.138698   -0.000010
  23 H :    0.138423   -0.000010
  24 H :    0.122133    0.000026
  25 C :   -0.301239    0.000594
  26 H :    0.120100    0.000059
  27 H :    0.117477    0.000012
  28 H :    0.123669    0.000252
  29 H :    0.165380    0.000531
  30 H :    0.141177    0.009391
  31 H :    0.161170    0.032365

  Mayer bond orders larger than 0.100000
B(  0-N ,  1-C ) :   0.9255 B(  0-N , 16-H ) :   0.8735 B(  0-N , 17-C ) :   1.2113
B(  1-C ,  2-C ) :   0.9411 B(  1-C ,  4-C ) :   0.8982 B(  1-C , 29-H ) :   0.9853
B(  2-C ,  3-O ) :   1.9117 B(  2-C , 18-N ) :   1.2228 B(  4-C ,  5-C ) :   0.9236
B(  4-C , 30-H ) :   0.9882 B(  4-C , 31-H ) :   0.9356 B(  5-C ,  6-C ) :   0.9361
B(  5-C ,  9-H ) :   0.9392 B(  6-C ,  7-C ) :   0.9205 B(  6-C , 10-H ) :   0.9477
B(  6-C , 11-H ) :   0.9842 B(  7-C ,  8-N ) :   0.9787 B(  7-C , 12-H ) :   0.9677
B(  7-C , 13-H ) :   0.9913 B(  8-N , 14-H ) :   0.9369 B(  8-N , 15-H ) :   0.9317
B( 17-C , 20-O ) :   1.9131 B( 17-C , 21-C ) :   0.9094 B( 18-N , 19-H ) :   0.9168
B( 18-N , 25-C ) :   0.9202 B( 21-C , 22-H ) :   0.9560 B( 21-C , 23-H ) :   0.9659
B( 21-C , 24-H ) :   0.9857 B( 25-C , 26-H ) :   0.9722 B( 25-C , 27-H ) :   0.9649
B( 25-C , 28-H ) :   0.9694

FINAL SINGLE POINT ENERGY      -668.446445561127

DIPOLE MOMENT
-------------
                                X             Y             Z
Electronic contribution:     10.21325       1.19343      -1.07591
Nuclear contribution   :    -11.01599      -0.67664       1.36608
                        -----------------------------------------
Total Dipole Moment    :     -0.80273       0.51679       0.29016
                        -----------------------------------------
Magnitude (a.u.)       :      0.99782
Magnitude (Debye)      :      2.53627

VIBRATIONAL FREQUENCIES
-----------------------

Scaling factor for frequencies =  1.000000000  (already applied!)

   0:         0.00 cm**-1
   1:         0.00 cm**-1
   2:         0.00 cm**-1
   3:         0.00 cm**-1
   4:         0.00 cm**-1
   5:         0.00 cm**-1
   6:       -27.02 cm**-1 ***imaginary mode***
   7:        43.93 cm**-1
   8:        50.42 cm**-1
   9:        69.79 cm**-1
  10:        84.36 cm**-1
  11:        90.85 cm**-1
  12:       104.91 cm**-1
  13:       112.49 cm**-1
  14:       133.50 cm**-1
  15:       151.54 cm**-1
  16:       162.05 cm**-1
  17:       165.59 cm**-1
  18:       212.83 cm**-1
  19:       235.08 cm**-1
  20:       256.02 cm**-1
  21:       292.12 cm**-1
  22:       323.24 cm**-1
  23:       361.12 cm**-1
  24:       381.03 cm**-1
  25:       400.83 cm**-1
  26:       412.44 cm**-1
  27:       445.24 cm**-1
  28:       511.83 cm**-1
  29:       552.22 cm**-1
  30:       577.61 cm**-1
  31:       632.88 cm**-1
  32:       664.93 cm**-1
  33:       696.16 cm**-1
  34:       779.77 cm**-1
  35:       806.96 cm**-1
  36:       844.55 cm**-1
  37:       878.45 cm**-1
  38:       922.03 cm**-1
  39:       954.10 cm**-1
  40:       978.82 cm**-1
  41:      1015.99 cm**-1
  42:      1028.79 cm**-1
  43:      1040.96 cm**-1
  44:      1064.03 cm**-1
  45:      1082.75 cm**-1
  46:      1114.33 cm**-1
  47:      1127.48 cm**-1
  48:      1150.61 cm**-1
  49:      1155.53 cm**-1
  50:      1162.01 cm**-1
  51:      1167.95 cm**-1
  52:      1198.95 cm**-1
  53:      1224.92 cm**-1
  54:      1238.39 cm**-1
  55:      1261.32 cm**-1
  56:      1280.12 cm**-1
  57:      1293.32 cm**-1
  58:      1319.23 cm**-1
  59:      1339.04 cm**-1
  60:      1367.18 cm**-1
  61:      1382.34 cm**-1
  62:      1409.64 cm**-1
  63:      1428.03 cm**-1
  64:      1450.12 cm**-1
  65:      1458.78 cm**-1
  66:      1472.32 cm**-1
  67:      1479.76 cm**-1
  68:      1480.95 cm**-1
  69:      1486.05 cm**-1
  70:      1491.29 cm**-1
  71:      1519.30 cm**-1
  72:      1523.74 cm**-1
  73:      1543.49 cm**-1
  74:      1577.18 cm**-1
  75:      1654.95 cm**-1
  76:      1773.63 cm**-1
  77:      1786.52 cm**-1
  78:      2970.79 cm**-1
  79:      3010.92 cm**-1
  80:      3025.62 cm**-1
  81:      3067.40 cm**-1
  82:      3077.55 cm**-1
  83:      3080.28 cm**-1
  84:      3081.53 cm**-1
  85:      3089.45 cm**-1
  86:      3102.85 cm**-1
  87:      3148.98 cm**-1
  88:      3173.19 cm**-1
  89:      3181.64 cm**-1
  90:      3182.31 cm**-1
  91:      3185.09 cm**-1
  92:      3525.35 cm**-1
  93:      3610.33 cm**-1
  94:      3613.76 cm**-1
  95:      3677.63 cm**-1

IR SPECTRUM
-----------

 Mode   freq       eps      Int      T**2         TX        TY        TZ
       cm**-1   L/(mol*cm) km/mol    a.u.
----------------------------------------------------------------------------
  7:     43.93   0.000819    4.14  0.005816  (-0.067817 -0.017678  0.030066)
  8:     50.42   0.000030    0.15  0.000185  ( 0.002494  0.004467  0.012604)
  9:     69.79   0.000721    3.64  0.003223  ( 0.035029  0.042343  0.014247)
 10:     84.36   0.000809    4.09  0.002992  (-0.036145 -0.041052 -0.000645)
 11:     90.85   0.001844    9.32  0.006335  (-0.070704 -0.024884  0.026768)
 12:    104.91   0.001238    6.26  0.003683  (-0.002339  0.058303  0.016682)
 13:    112.49   0.001518    7.67  0.004211  ( 0.037320  0.052707  0.006349)
 14:    133.50   0.001253    6.33  0.002930  (-0.047681  0.025192 -0.004695)
 15:    151.54   0.000586    2.96  0.001207  ( 0.004442 -0.034216 -0.004117)
 16:    162.05   0.000890    4.50  0.001714  (-0.038458 -0.012919  0.008235)
 17:    165.59   0.000404    2.04  0.000762  ( 0.010912 -0.024834 -0.005068)
 18:    212.83   0.000707    3.57  0.001036  (-0.021870  0.009315  0.021700)
 19:    235.08   0.001653    8.35  0.002194  ( 0.025403 -0.039194  0.003508)
 20:    256.02   0.005462   27.60  0.006657  ( 0.041066 -0.052785 -0.046738)
 21:    292.12   0.001886    9.53  0.002015  ( 0.034091 -0.027962 -0.008414)
 22:    323.24   0.002734   13.82  0.002640  ( 0.049557  0.000319 -0.013554)
 23:    361.12   0.001151    5.82  0.000995  ( 0.027129 -0.015954 -0.002043)
 24:    381.03   0.006039   30.52  0.004946  ( 0.029713  0.063043 -0.009399)
 25:    400.83   0.010348   52.30  0.008057  (-0.061479 -0.064838  0.008532)
 26:    412.44   0.006140   31.03  0.004646  ( 0.063633 -0.020220 -0.013705)
 27:    445.24   0.000525    2.65  0.000368  ( 0.010826  0.000733  0.015826)
 28:    511.83   0.001765    8.92  0.001076  ( 0.006825 -0.021667  0.023670)
 29:    552.22   0.007819   39.51  0.004418  (-0.064158 -0.013154  0.011359)
 30:    577.61   0.008937   45.16  0.004828  ( 0.035648  0.057620 -0.015409)
 31:    632.88   0.004325   21.86  0.002133  (-0.044400  0.005548  0.011426)
 32:    664.93   0.000820    4.14  0.000385  ( 0.013805  0.012036 -0.007034)
 33:    696.16   0.000287    1.45  0.000129  ( 0.008517  0.006501  0.003709)
 34:    779.77   0.001603    8.10  0.000641  ( 0.007088 -0.007880  0.023003)
 35:    806.96   0.002397   12.11  0.000927  (-0.028071 -0.006232 -0.010007)
 36:    844.55   0.026112  131.96  0.009649  (-0.065892  0.032585 -0.065154)
 37:    878.45   0.001371    6.93  0.000487  ( 0.005422 -0.013012 -0.016977)
 38:    922.03   0.000497    2.51  0.000168  (-0.000315 -0.008578 -0.009724)
 39:    954.10   0.001068    5.40  0.000349  (-0.012561  0.007855 -0.011399)
 40:    978.82   0.000253    1.28  0.000081  ( 0.000460 -0.006319  0.006358)
 41:   1015.99   0.000371    1.87  0.000114  ( 0.005305 -0.004066 -0.008322)
 42:   1028.79   0.002543   12.85  0.000771  (-0.021266  0.017846 -0.000730)
 43:   1040.96   0.001441    7.28  0.000432  (-0.011734  0.004201 -0.016635)
 44:   1064.03   0.001204    6.09  0.000353  (-0.015527 -0.010152  0.003015)
 45:   1082.75   0.001337    6.76  0.000385  ( 0.005960 -0.007234  0.017247)
 46:   1114.33   0.004309   21.77  0.001207  ( 0.033722  0.008233 -0.001269)
 47:   1127.48   0.000164    0.83  0.000045  (-0.003014  0.005080  0.003238)
 48:   1150.61   0.000535    2.70  0.000145  ( 0.004681  0.004026 -0.010339)
 49:   1155.53   0.000379    1.92  0.000102  ( 0.001248  0.004439 -0.009011)
 50:   1162.01   0.000246    1.24  0.000066  ( 0.003060 -0.007250  0.002007)
 51:   1167.95   0.000123    0.62  0.000033  ( 0.003205  0.004743  0.000469)
 52:   1198.95   0.000046    0.23  0.000012  (-0.001121 -0.002972  0.001394)
 53:   1224.92   0.000645    3.26  0.000164  ( 0.004633 -0.009788  0.006856)
 54:   1238.39   0.000912    4.61  0.000230  (-0.013395  0.006903 -0.001669)
 55:   1261.32   0.010780   54.48  0.002667  (-0.026408  0.044373  0.000768)
 56:   1280.12   0.002022   10.22  0.000493  (-0.011651 -0.016316 -0.009534)
 57:   1293.32   0.000218    1.10  0.000053  (-0.007148 -0.000942  0.000834)
 58:   1319.23   0.004337   21.92  0.001026  (-0.027653  0.016043  0.001962)
 59:   1339.04   0.000883    4.46  0.000206  ( 0.006614 -0.011926 -0.004454)
 60:   1367.18   0.002814   14.22  0.000642  (-0.014729  0.019499  0.006723)
 61:   1382.34   0.000434    2.19  0.000098  (-0.000587  0.008556  0.004934)
 62:   1409.64   0.005738   29.00  0.001270  ( 0.023015 -0.025495  0.009517)
 63:   1428.03   0.001667    8.42  0.000364  (-0.018698 -0.003168  0.002157)
 64:   1450.12   0.001371    6.93  0.000295  ( 0.013997  0.008873  0.004529)
 65:   1458.78   0.004148   20.96  0.000887  ( 0.010301 -0.024544  0.013371)
 66:   1472.32   0.000588    2.97  0.000125  ( 0.004806 -0.005473 -0.008467)
 67:   1479.76   0.002932   14.82  0.000618  (-0.016251  0.004385  0.018305)
 68:   1480.95   0.002819   14.24  0.000594  ( 0.013474  0.009179  0.018115)
 69:   1486.05   0.002932   14.82  0.000616  ( 0.023481 -0.005310 -0.006009)
 70:   1491.29   0.010883   55.00  0.002277  ( 0.022512 -0.039520 -0.014444)
 71:   1519.30   0.003707   18.73  0.000761  ( 0.010926 -0.024390 -0.006869)
 72:   1523.74   0.000486    2.46  0.000100  ( 0.007246 -0.005208 -0.004464)
 73:   1543.49   0.121177  612.38  0.024500  ( 0.099325 -0.119625  0.017999)
 74:   1577.18   0.019689   99.50  0.003896  ( 0.006141 -0.059086  0.019152)
 75:   1654.95   0.007552   38.17  0.001424  (-0.025383 -0.025958  0.010293)
 76:   1773.63   0.083840  423.69  0.014751  (-0.005541  0.020781  0.119535)
 77:   1786.52   0.016890   85.36  0.002950  (-0.040947  0.030820 -0.017994)
 78:   2970.79   0.005911   29.87  0.000621  (-0.010519 -0.018678 -0.012702)
 79:   3010.92   0.009459   47.80  0.000980  (-0.016028  0.005703 -0.026286)
 80:   3025.62   0.001613    8.15  0.000166  ( 0.003365  0.001095  0.012405)
 81:   3067.40   0.001814    9.17  0.000185  ( 0.003801 -0.008648  0.009763)
 82:   3077.55   0.002543   12.85  0.000258  (-0.003142  0.000628 -0.015734)
 83:   3080.28   0.009380   47.40  0.000950  ( 0.004840 -0.029629  0.007001)
 84:   3081.53   0.001971    9.96  0.000200  ( 0.003523 -0.009274 -0.010058)
 85:   3089.45   0.000613    3.10  0.000062  (-0.002425  0.001857 -0.007253)
 86:   3102.85   0.004431   22.39  0.000446  (-0.000452  0.021102 -0.000395)
 87:   3148.98   0.002015   10.18  0.000200  ( 0.012675  0.006038 -0.001608)
 88:   3173.19   0.000446    2.25  0.000044  ( 0.003407  0.004159  0.003863)
 89:   3181.64   0.001271    6.42  0.000125  (-0.003918  0.002732 -0.010093)
 90:   3182.31   0.001309    6.62  0.000128  ( 0.003006 -0.003400 -0.010381)
 91:   3185.09   0.001492    7.54  0.000146  (-0.004984  0.004776 -0.009928)
 92:   3525.35   0.000162    0.82  0.000014  (-0.003033 -0.001793  0.001375)
 93:   3610.33   0.000837    4.23  0.000072  (-0.002938  0.005934  0.005335)
 94:   3613.76   0.020498  103.59  0.001770  (-0.010380  0.027335  0.030252)
 95:   3677.63   0.008458   42.74  0.000718  ( 0.007048 -0.004037  0.025529)

--------------------------
THERMOCHEMISTRY AT 298.15K
--------------------------

Temperature         ... 298.15 K
Pressure            ... 1.00 atm
Total Mass          ... 200.26 AMU

Throughout the following assumptions are being made:
  (1) The electronic state is orbitally nondegenerate
      but the spin degeneracy is treated
  (2) There are no thermally accessible electronically excited states
  (3) Hindered rotations indicated by low frequency modes are not
      treated as such but are treated as vibrations and this may
      cause some error
  (4) All equations used are the standard statistical mechanics
      equations for an ideal gas
  (5) All vibrations are strictly harmonic

freq.      43.93  E(vib)   ...       0.53
freq.      50.42  E(vib)   ...       0.52
freq.      69.79  E(vib)   ...       0.50
freq.      84.36  E(vib)   ...       0.48
freq.      90.85  E(vib)   ...       0.47
freq.     104.91  E(vib)   ...       0.46
freq.     112.49  E(vib)   ...       0.45
freq.     133.50  E(vib)   ...       0.42
freq.     151.54  E(vib)   ...       0.40
freq.     162.05  E(vib)   ...       0.39
freq.     165.59  E(vib)   ...       0.39
freq.     212.83  E(vib)   ...       0.34
freq.     235.08  E(vib)   ...       0.32
freq.     256.02  E(vib)   ...       0.30
freq.     292.12  E(vib)   ...       0.27
freq.     323.24  E(vib)   ...       0.25
freq.     361.12  E(vib)   ...       0.22
freq.     381.03  E(vib)   ...       0.21
freq.     400.83  E(vib)   ...       0.19
freq.     412.44  E(vib)   ...       0.19
freq.     445.24  E(vib)   ...       0.17
freq.     511.83  E(vib)   ...       0.14
freq.     552.22  E(vib)   ...       0.12
freq.     577.61  E(vib)   ...       0.11
freq.     632.88  E(vib)   ...       0.09
freq.     664.93  E(vib)   ...       0.08
freq.     696.16  E(vib)   ...       0.07
freq.     779.77  E(vib)   ...       0.05
freq.     806.96  E(vib)   ...       0.05
freq.     844.55  E(vib)   ...       0.04
freq.     878.45  E(vib)   ...       0.04
freq.     922.03  E(vib)   ...       0.03
freq.     954.10  E(vib)   ...       0.03
freq.     978.82  E(vib)   ...       0.03
freq.    1015.99  E(vib)   ...       0.02
freq.    1028.79  E(vib)   ...       0.02
freq.    1040.96  E(vib)   ...       0.02
freq.    1064.03  E(vib)   ...       0.02
freq.    1082.75  E(vib)   ...       0.02
freq.    1114.33  E(vib)   ...       0.01
freq.    1127.48  E(vib)   ...       0.01
freq.    1150.61  E(vib)   ...       0.01
freq.    1155.53  E(vib)   ...       0.01
freq.    1162.01  E(vib)   ...       0.01
freq.    1167.95  E(vib)   ...       0.01
freq.    1198.95  E(vib)   ...       0.01
freq.    1224.92  E(vib)   ...       0.01
freq.    1238.39  E(vib)   ...       0.01
freq.    1261.32  E(vib)   ...       0.01
freq.    1280.12  E(vib)   ...       0.01
freq.    1293.32  E(vib)   ...       0.01
freq.    1319.23  E(vib)   ...       0.01
freq.    1339.04  E(vib)   ...       0.01
freq.    1367.18  E(vib)   ...       0.01
freq.    1382.34  E(vib)   ...       0.01
freq.    1409.64  E(vib)   ...       0.00
freq.    1428.03  E(vib)   ...       0.00
freq.    1450.12  E(vib)   ...       0.00
freq.    1458.78  E(vib)   ...       0.00
freq.    1472.32  E(vib)   ...       0.00
freq.    1479.76  E(vib)   ...       0.00
freq.    1480.95  E(vib)   ...       0.00
freq.    1486.05  E(vib)   ...       0.00
freq.    1491.29  E(vib)   ...       0.00
freq.    1519.30  E(vib)   ...       0.00
freq.    1523.74  E(vib)   ...       0.00
freq.    1543.49  E(vib)   ...       0.00
freq.    1577.18  E(vib)   ...       0.00
freq.    1654.95  E(vib)   ...       0.00
freq.    1773.63  E(vib)   ...       0.00
freq.    1786.52  E(vib)   ...       0.00
freq.    2970.79  E(vib)   ...       0.00
freq.    3010.92  E(vib)   ...       0.00
freq.    3025.62  E(vib)   ...       0.00
freq.    3067.40  E(vib)   ...       0.00
freq.    3077.55  E(vib)   ...       0.00
freq.    3080.28  E(vib)   ...       0.00
freq.    3081.53  E(vib)   ...       0.00
freq.    3089.45  E(vib)   ...       0.00
freq.    3102.85  E(vib)   ...       0.00
freq.    3148.98  E(vib)   ...       0.00
freq.    3173.19  E(vib)   ...       0.00
freq.    3181.64  E(vib)   ...       0.00
freq.    3182.31  E(vib)   ...       0.00
freq.    3185.09  E(vib)   ...       0.00
freq.    3525.35  E(vib)   ...       0.00
freq.    3610.33  E(vib)   ...       0.00
freq.    3613.76  E(vib)   ...       0.00
freq.    3677.63  E(vib)   ...       0.00

------------
INNER ENERGY
------------

The inner energy is: U= E(el) + E(ZPE) + E(vib) + E(rot) + E(trans)
    E(el)   - is the total energy from the electronic structure calculation
              = E(kin-el) + E(nuc-el) + E(el-el) + E(nuc-nuc)
    E(ZPE)  - the the zero temperature vibrational energy from the frequency calculation
    E(vib)  - the the finite temperature correction to E(ZPE) due to population
              of excited vibrational states
    E(rot)  - is the rotational thermal energy
    E(trans)- is the translational thermal energy

Summary of contributions to the inner energy U:
Electronic energy                ...   -668.44644556 Eh
Zero point energy                ...      0.27712849 Eh     173.90 kcal/mol
Thermal vibrational correction   ...      0.01373611 Eh       8.62 kcal/mol
Thermal rotational correction    ...      0.00141627 Eh       0.89 kcal/mol
Thermal translational correction ...      0.00141627 Eh       0.89 kcal/mol
-----------------------------------------------------------------------
Total thermal energy                   -668.15274842 Eh

Summary of corrections to the electronic energy:
(perhaps to be used in another calculation)
Total thermal correction                  0.01656865 Eh      10.40 kcal/mol
Non-thermal (ZPE) correction              0.27712849 Eh     173.90 kcal/mol
-----------------------------------------------------------------------
Total correction                          0.29369714 Eh     184.30 kcal/mol

--------
ENTHALPY
--------

The enthalpy is H = U + kB*T
                kB is Boltzmann's constant
Total free energy                 ...   -668.15274842 Eh
Thermal Enthalpy correction       ...      0.00094421 Eh       0.59 kcal/mol
-----------------------------------------------------------------------
Total Enthalpy                    ...   -668.15180421 Eh

Note: Only C1 symmetry has been detected, increase convergence thresholds
      if your molecule has a higher symmetry. Symmetry factor of 1.0 is
      used for the rotational entropy correction.

Note: Rotational entropy computed according to Herzberg
Infrared and Raman Spectra, Chapter V,1, Van Nostrand Reinhold, 1945
Point Group:  C1, Symmetry Number:   1
Rotational constants in cm-1:     0.023306     0.012931     0.009503

                             ****ORCA TERMINATED NORMALLY****
TOTAL RUN TIME: 0 days 0 hours 27 minutes 52 seconds 214 msec
