                         Program Version 5.0.4 -  RELEASE  -
|  1> ! B3LYP EPR-II OPT
|  2> %pal nprocs 16 end
|  3> *XYZFile 0 2 model.xyz
|  4>
|  5>                          ****END OF INPUT****
 Total Charge           Charge          ....    0
 Multiplicity           Mult            ....    2
 Number of Electrons    NEL             ....  109
FINAL SINGLE POINT ENERGY      -668.216803954922
FINAL SINGLE POINT ENERGY      -668.218182764666
FINAL SINGLE POINT ENERGY      -668.218270666693
FINAL SINGLE POINT ENERGY      -668.218293278180
FINAL SINGLE POINT ENERGY      -668.218304824949
FINAL SINGLE POINT ENERGY      -668.218307341070
FINAL SINGLE POINT ENERGY      -668.218305007168
FINAL SINGLE POINT ENERGY      -668.218300214032
FINAL SINGLE POINT ENERGY      -668.218295656783
FINAL SINGLE POINT ENERGY      -668.218295918796
                    ***********************HURRAY********************

CARTESIAN COORDINATES (ANGSTROEM)
---------------------------------
  N      1.798749   -0.544240    0.345043
  C      1.086202    0.344023   -0.557268
  C      0.783819    1.634613    0.232269
  O      0.902380    1.690630    1.458669
  C     -0.208401   -0.298798   -1.128978
  C     -1.262818   -0.595480   -0.103867
  C     -2.650034   -0.991108   -0.515497
  C     -3.669939   -0.928270    0.633786
  N     -5.011866   -1.304041    0.153957
  H     -0.950785   -0.778725    0.922683
  H     -2.642582   -2.021471   -0.921684
  H     -3.006195   -0.357225   -1.339199
  H     -3.720214    0.101081    1.006315
  H     -3.304395   -1.554414    1.466082
  H     -5.680877   -1.229316    0.915557
  H     -5.009081   -2.283029   -0.122414
  H      1.797475   -0.260400    1.316924
  C      2.641120   -1.519048   -0.113120
  N      0.364044    2.692601   -0.514298
  H      0.320314    2.593945   -1.516122
  O      2.771314   -1.767354   -1.313269
  C      3.402700   -2.294132    0.957609
  H      3.133567   -3.351001    0.877864
  H      4.472860   -2.208922    0.750904
  H      3.200363   -1.946534    1.974103
  C      0.001690    3.971592    0.090619
  H      0.886578    4.508770    0.447910
  H     -0.510710    4.582551   -0.655080
  H     -0.663804    3.806567    0.940942
  H      1.744180    0.574681   -1.403886
  H     -0.620166    0.353870   -1.913339
  H      0.109804   -1.216597   -1.650174

 Multiplicity           Mult            ....    2
 Number of Electrons    NEL             ....  109
 Basis Dimension        Dim             ....  364

ORBITAL ENERGIES
----------------
                 SPIN UP ORBITALS
  NO   OCC          E(Eh)            E(eV)
   0   1.0000     -19.121149      -520.3129
   1   1.0000     -19.100282      -519.7451
   2   1.0000     -14.370574      -391.0432
   3   1.0000     -14.349645      -390.4737
   4   1.0000     -14.308178      -389.3453
   5   1.0000     -10.301437      -280.3163
   6   1.0000     -10.288200      -279.9562
   7   1.0000     -10.239808      -278.6394
   8   1.0000     -10.225291      -278.2443
   9   1.0000     -10.206228      -277.7256
  10   1.0000     -10.195519      -277.4342
  11   1.0000     -10.191393      -277.3219
  12   1.0000     -10.185737      -277.1680
  13   1.0000     -10.184344      -277.1301
  14   1.0000      -1.044065       -28.4105
  15   1.0000      -1.022167       -27.8146
  16   1.0000      -0.929828       -25.3019
  17   1.0000      -0.916855       -24.9489
  18   1.0000      -0.876106       -23.8401
  19   1.0000      -0.800567       -21.7845
  20   1.0000      -0.760318       -20.6893
  21   1.0000      -0.727081       -19.7849
  22   1.0000      -0.714100       -19.4316
  23   1.0000      -0.666927       -18.1480
  24   1.0000      -0.616242       -16.7688
  25   1.0000      -0.597524       -16.2595
  26   1.0000      -0.584207       -15.8971
  27   1.0000      -0.558275       -15.1914
  28   1.0000      -0.536843       -14.6082
  29   1.0000      -0.489375       -13.3166
  30   1.0000      -0.480856       -13.0847
  31   1.0000      -0.472241       -12.8503
  32   1.0000      -0.463357       -12.6086
  33   1.0000      -0.456527       -12.4227
  34   1.0000      -0.453299       -12.3349
  35   1.0000      -0.446576       -12.1520
  36   1.0000      -0.433914       -11.8074
  37   1.0000      -0.426253       -11.5989
  38   1.0000      -0.422162       -11.4876
  39   1.0000      -0.405566       -11.0360
  40   1.0000      -0.401329       -10.9207
  41   1.0000      -0.396445       -10.7878
  42   1.0000      -0.387252       -10.5377
  43   1.0000      -0.374979       -10.2037
  44   1.0000      -0.370767       -10.0891
  45   1.0000      -0.361835        -9.8460
  46   1.0000      -0.348907        -9.4943
  47   1.0000      -0.343765        -9.3543
  48   1.0000      -0.331154        -9.0112
  49   1.0000      -0.270252        -7.3539
  50   1.0000      -0.268653        -7.3104
  51   1.0000      -0.252072        -6.8592
  52   1.0000      -0.246267        -6.7013
  53   1.0000      -0.238189        -6.4815
  54   1.0000      -0.185936        -5.0596
  55   0.0000       0.006483         0.1764
  56   0.0000       0.012268         0.3338
  57   0.0000       0.025630         0.6974
  58   0.0000       0.027021         0.7353
  59   0.0000       0.031027         0.8443

                 SPIN DOWN ORBITALS
  NO   OCC          E(Eh)            E(eV)
   0   1.0000     -19.121061      -520.3105
   1   1.0000     -19.100185      -519.7424
   2   1.0000     -14.370559      -391.0428
   3   1.0000     -14.349605      -390.4726
   4   1.0000     -14.308134      -389.3441
   5   1.0000     -10.301447      -280.3166
   6   1.0000     -10.288206      -279.9563
   7   1.0000     -10.239629      -278.6345
   8   1.0000     -10.225289      -278.2443
   9   1.0000     -10.205995      -277.7192
  10   1.0000     -10.196362      -277.4571
  11   1.0000     -10.185737      -277.1680
  12   1.0000     -10.185193      -277.1532
  13   1.0000     -10.177619      -276.9471
  14   1.0000      -1.043915       -28.4064
  15   1.0000      -1.022030       -27.8109
  16   1.0000      -0.929767       -25.3002
  17   1.0000      -0.916618       -24.9424
  18   1.0000      -0.875713       -23.8294
  19   1.0000      -0.792091       -21.5539
  20   1.0000      -0.754554       -20.5324
  21   1.0000      -0.726989       -19.7824
  22   1.0000      -0.712964       -19.4007
  23   1.0000      -0.662697       -18.0329
  24   1.0000      -0.611494       -16.6396
  25   1.0000      -0.597469       -16.2579
  26   1.0000      -0.579893       -15.7797
  27   1.0000      -0.547558       -14.8998
  28   1.0000      -0.536377       -14.5956
  29   1.0000      -0.488159       -13.2835
  30   1.0000      -0.479693       -13.0531
  31   1.0000      -0.471942       -12.8422
  32   1.0000      -0.462131       -12.5752
  33   1.0000      -0.455938       -12.4067
  34   1.0000      -0.449441       -12.2299
  35   1.0000      -0.445725       -12.1288
  36   1.0000      -0.427662       -11.6373
  37   1.0000      -0.424049       -11.5390
  38   1.0000      -0.419755       -11.4221
  39   1.0000      -0.405216       -11.0265
  40   1.0000      -0.399285       -10.8651
  41   1.0000      -0.394916       -10.7462
  42   1.0000      -0.385172       -10.4811
  43   1.0000      -0.372368       -10.1326
  44   1.0000      -0.368918       -10.0388
  45   1.0000      -0.359071        -9.7708
  46   1.0000      -0.344320        -9.3694
  47   1.0000      -0.340341        -9.2612
  48   1.0000      -0.328851        -8.9485
  49   1.0000      -0.270033        -7.3480
  50   1.0000      -0.268029        -7.2934
  51   1.0000      -0.250717        -6.8224
  52   1.0000      -0.246048        -6.6953
  53   1.0000      -0.237693        -6.4680
  54   0.0000      -0.044600        -1.2136
  55   0.0000       0.007385         0.2010
  56   0.0000       0.012444         0.3386
  57   0.0000       0.025845         0.7033
  58   0.0000       0.027937         0.7602

MULLIKEN ATOMIC CHARGES AND SPIN POPULATIONS
--------------------------------------------
   0 N :   -0.111120    0.000089
   1 C :   -0.144833    0.002297
   2 C :    0.119515    0.011612
   3 O :   -0.335985    0.001377
   4 C :   -0.271094   -0.061091
   5 C :   -0.077878    0.998834
   6 C :   -0.316304   -0.061047
   7 C :   -0.285974    0.009529
   8 N :   -0.458557    0.001324
   9 H :    0.126758   -0.048336
  10 H :    0.147534    0.054794
  11 H :    0.162666    0.019613
  12 H :    0.165847   -0.000837
  13 H :    0.135758   -0.000703
  14 H :    0.209815   -0.000257
  15 H :    0.209990    0.000124
  16 H :    0.251379    0.000096
  17 C :    0.175668    0.000095
  18 N :   -0.103878   -0.002633
  19 H :    0.233379    0.000229
  20 O :   -0.328107    0.003134
  21 C :   -0.554364   -0.000042
  22 H :    0.185019    0.000013
  23 H :    0.186151    0.000008
  24 H :    0.148834    0.000024
  25 C :   -0.442670    0.000356
  26 H :    0.176810    0.000035
  27 H :    0.144462    0.000011
  28 H :    0.188382    0.000125
  29 H :    0.155453   -0.000177
  30 H :    0.126771    0.020451
  31 H :    0.180575    0.050953
Sum of atomic charges         :    0.0000000

LOEWDIN ATOMIC CHARGES AND SPIN POPULATIONS
-------------------------------------------
   0 N :    0.064290    0.001322
   1 C :   -0.046326    0.006470
   2 C :   -0.089253    0.004565
   3 O :   -0.190009    0.003092
   4 C :   -0.068821    0.009074
   5 C :   -0.050423    0.822621
   6 C :   -0.097519    0.008763
   7 C :   -0.056953    0.008280
   8 N :   -0.096033    0.001407
   9 H :    0.045416    0.008738
  10 H :    0.051504    0.044000
  11 H :    0.054013    0.016992
  12 H :    0.040276   -0.000021
  13 H :    0.023738   -0.000180
  14 H :    0.049310   -0.000024
  15 H :    0.050927    0.000355
  16 H :    0.090275    0.000045
  17 C :   -0.103328    0.000194
  18 N :    0.041985    0.000610
  19 H :    0.079176    0.000526
  20 O :   -0.199028    0.003017
  21 C :   -0.042700    0.000013
  22 H :    0.054059   -0.000000
  23 H :    0.054341   -0.000006
  24 H :    0.033713    0.000025
  25 C :    0.011985    0.000395
  26 H :    0.036216   -0.000007
  27 H :    0.032666    0.000013
  28 H :    0.044858    0.000015
  29 H :    0.066784   -0.000139
  30 H :    0.047368    0.018097
  31 H :    0.067492    0.041747

  Mayer bond orders larger than 0.100000
B(  0-N ,  1-C ) :   1.0319 B(  0-N , 16-H ) :   0.8910 B(  0-N , 17-C ) :   1.2075
B(  1-C ,  2-C ) :   0.9059 B(  1-C ,  4-C ) :   0.9399 B(  1-C , 20-O ) :   0.1425
B(  1-C , 29-H ) :   0.9716 B(  2-C ,  3-O ) :   1.8333 B(  2-C , 18-N ) :   1.2142
B(  4-C ,  5-C ) :   0.9831 B(  4-C , 30-H ) :   0.9715 B(  4-C , 31-H ) :   0.9437
B(  5-C ,  6-C ) :   0.9724 B(  5-C ,  9-H ) :   0.9913 B(  6-C ,  7-C ) :   0.9608
B(  6-C , 10-H ) :   0.9585 B(  6-C , 11-H ) :   0.9654 B(  7-C ,  8-N ) :   1.0118
B(  7-C , 12-H ) :   0.9579 B(  7-C , 13-H ) :   0.9436 B(  8-N , 14-H ) :   0.9440
B(  8-N , 15-H ) :   0.9478 B( 17-C , 20-O ) :   1.8563 B( 17-C , 21-C ) :   0.8934
B( 18-N , 19-H ) :   0.9347 B( 18-N , 25-C ) :   0.9653 B( 21-C , 22-H ) :   0.9591
B( 21-C , 23-H ) :   0.9588 B( 21-C , 24-H ) :   0.9758 B( 25-C , 26-H ) :   0.9535
B( 25-C , 27-H ) :   0.9671 B( 25-C , 28-H ) :   0.9489

FINAL SINGLE POINT ENERGY      -668.218298549670

DIPOLE MOMENT
-------------
                                X             Y             Z
Electronic contribution:      9.92300       1.43279      -1.00888
Nuclear contribution   :    -10.59094      -0.79078       1.27181
                        -----------------------------------------
Total Dipole Moment    :     -0.66793       0.64201       0.26293
                        -----------------------------------------
Magnitude (a.u.)       :      0.96304
Magnitude (Debye)      :      2.44785

Rotational constants in cm-1:     0.021101     0.012722     0.009061
Rotational constants in MHz :   632.606217   381.391096   271.638687

                             ****ORCA TERMINATED NORMALLY****
TOTAL RUN TIME: 0 days 0 hours 6 minutes 6 seconds 750 msec
