                         Program Version 5.0.4 -  RELEASE  -
|  1> ! B3LYP EPR-II AUTOAUX
|  2> %pal nprocs 16 end
|  3> *XYZFile 0 2 opt.xyz
|  4> %EPRNMR
|  5>         GTENSOR   TRUE
|  6>         NUCLEI    = 8,9,26,27 {SHIFT, AISO, ADIP, AORB}
|  7>         ORI       GIAO
|  8> END
|  9>
| 10>                          ****END OF INPUT****

CARTESIAN COORDINATES (ANGSTROEM)
---------------------------------
  N     -4.429999   -4.617090   -0.718484
  C     -2.978422   -4.656573   -0.690345
  C     -2.550999   -4.644616    0.792293
  O     -3.315962   -4.246701    1.673703
  C     -2.329809   -3.484164   -1.476582
  C     -2.731854   -2.097211   -0.939323
  C     -1.986971   -0.978533   -1.618522
  O     -0.819021   -1.077209   -2.089835
  O     -2.451610    0.193810   -1.761048
  H     -4.874945   -4.388446    0.161569
  H     -2.647050   -5.586678   -1.167467
  C     -5.147502   -5.089139   -1.786578
  N     -1.274125   -5.056798    1.028376
  H     -0.743117   -5.426850    0.254194
  O     -4.601908   -5.487975   -2.815148
  C     -6.663784   -5.069358   -1.628098
  H     -7.081494   -4.375212   -2.363040
  H     -7.048104   -6.065814   -1.859845
  H     -6.994254   -4.774649   -0.628602
  C     -0.679754   -5.093630    2.362060
  H     -0.534921   -6.125099    2.700799
  H      0.284114   -4.576039    2.366035
  H     -1.362370   -4.590509    3.046803
  H     -1.240690   -3.591219   -1.448258
  H     -2.636593   -3.583605   -2.521492
  H     -2.512078   -2.007113    0.133056
  H     -3.804181   -1.914035   -1.056437

 Total Charge           Charge          ....    0
 Multiplicity           Mult            ....    2
 Number of Electrons    NEL             ....  107
 Basis Dimension        Dim             ....  329

ORBITAL ENERGIES
----------------
                 SPIN UP ORBITALS
  NO   OCC          E(Eh)            E(eV)
   0   1.0000     -19.209958      -522.7295
   1   1.0000     -19.202303      -522.5212
   2   1.0000     -19.136685      -520.7357
   3   1.0000     -19.113142      -520.0950
   4   1.0000     -14.386722      -391.4826
   5   1.0000     -14.364393      -390.8750
   6   1.0000     -10.347865      -281.5797
   7   1.0000     -10.318401      -280.7780
   8   1.0000     -10.301204      -280.3100
   9   1.0000     -10.257620      -279.1240
  10   1.0000     -10.235595      -278.5247
  11   1.0000     -10.225182      -278.2414
  12   1.0000     -10.216799      -278.0132
  13   1.0000     -10.195819      -277.4423
  14   1.0000      -1.135492       -30.8983
  15   1.0000      -1.060035       -28.8450
  16   1.0000      -1.035921       -28.1888
  17   1.0000      -1.020706       -27.7748
  18   1.0000      -0.945544       -25.7296
  19   1.0000      -0.931527       -25.3481
  20   1.0000      -0.821899       -22.3650
  21   1.0000      -0.768913       -20.9232
  22   1.0000      -0.738694       -20.1009
  23   1.0000      -0.710098       -19.3227
  24   1.0000      -0.652258       -17.7489
  25   1.0000      -0.611206       -16.6318
  26   1.0000      -0.589455       -16.0399
  27   1.0000      -0.562756       -15.3134
  28   1.0000      -0.552157       -15.0249
  29   1.0000      -0.526907       -14.3379
  30   1.0000      -0.501916       -13.6578
  31   1.0000      -0.495307       -13.4780
  32   1.0000      -0.488125       -13.2826
  33   1.0000      -0.479256       -13.0412
  34   1.0000      -0.471444       -12.8286
  35   1.0000      -0.467425       -12.7193
  36   1.0000      -0.456337       -12.4176
  37   1.0000      -0.448174       -12.1954
  38   1.0000      -0.433945       -11.8082
  39   1.0000      -0.422245       -11.4899
  40   1.0000      -0.413032       -11.2392
  41   1.0000      -0.408614       -11.1189
  42   1.0000      -0.402255       -10.9459
  43   1.0000      -0.388002       -10.5581
  44   1.0000      -0.381448       -10.3797
  45   1.0000      -0.377740       -10.2788
  46   1.0000      -0.362351        -9.8601
  47   1.0000      -0.346887        -9.4393
  48   1.0000      -0.341638        -9.2964
  49   1.0000      -0.334636        -9.1059
  50   1.0000      -0.285600        -7.7716
  51   1.0000      -0.283809        -7.7228
  52   1.0000      -0.264078        -7.1859
  53   1.0000      -0.258864        -7.0440
  54   0.0000      -0.020866        -0.5678
  55   0.0000      -0.003737        -0.1017
  56   0.0000      -0.000096        -0.0026
  57   0.0000       0.014752         0.4014
  58   0.0000       0.016422         0.4469

                 SPIN DOWN ORBITALS
  NO   OCC          E(Eh)            E(eV)
   0   1.0000     -19.194533      -522.3098
   1   1.0000     -19.188715      -522.1515
   2   1.0000     -19.136690      -520.7358
   3   1.0000     -19.113110      -520.0942
   4   1.0000     -14.386718      -391.4825
   5   1.0000     -14.364316      -390.8729
   6   1.0000     -10.349065      -281.6124
   7   1.0000     -10.318404      -280.7780
   8   1.0000     -10.301212      -280.3102
   9   1.0000     -10.257557      -279.1223
  10   1.0000     -10.235595      -278.5247
  11   1.0000     -10.225248      -278.2432
  12   1.0000     -10.216653      -278.0093
  13   1.0000     -10.195818      -277.4423
  14   1.0000      -1.107500       -30.1366
  15   1.0000      -1.060033       -28.8450
  16   1.0000      -1.035856       -28.1871
  17   1.0000      -0.984260       -26.7831
  18   1.0000      -0.945537       -25.7294
  19   1.0000      -0.931364       -25.3437
  20   1.0000      -0.820779       -22.3345
  21   1.0000      -0.767944       -20.8968
  22   1.0000      -0.738672       -20.1003
  23   1.0000      -0.709299       -19.3010
  24   1.0000      -0.651303       -17.7229
  25   1.0000      -0.611195       -16.6315
  26   1.0000      -0.588297       -16.0084
  27   1.0000      -0.552647       -15.0383
  28   1.0000      -0.551716       -15.0130
  29   1.0000      -0.503149       -13.6914
  30   1.0000      -0.498628       -13.5684
  31   1.0000      -0.490110       -13.3366
  32   1.0000      -0.484551       -13.1853
  33   1.0000      -0.471607       -12.8331
  34   1.0000      -0.468341       -12.7442
  35   1.0000      -0.463362       -12.6087
  36   1.0000      -0.452839       -12.3224
  37   1.0000      -0.444296       -12.0899
  38   1.0000      -0.429118       -11.6769
  39   1.0000      -0.420520       -11.4429
  40   1.0000      -0.413009       -11.2386
  41   1.0000      -0.407524       -11.0893
  42   1.0000      -0.401987       -10.9386
  43   1.0000      -0.386564       -10.5189
  44   1.0000      -0.380319       -10.3490
  45   1.0000      -0.376286       -10.2393
  46   1.0000      -0.355704        -9.6792
  47   1.0000      -0.317209        -8.6317
  48   1.0000      -0.298008        -8.1092
  49   1.0000      -0.285601        -7.7716
  50   1.0000      -0.283617        -7.7176
  51   1.0000      -0.263988        -7.1835
  52   1.0000      -0.258808        -7.0425
  53   0.0000      -0.184355        -5.0165
  54   0.0000      -0.018058        -0.4914
  55   0.0000      -0.002816        -0.0766
  56   0.0000       0.000005         0.0001
  57   0.0000       0.014874         0.4048

MULLIKEN ATOMIC CHARGES AND SPIN POPULATIONS
--------------------------------------------
   0 N :   -0.121936    0.003911
   1 C :   -0.122410    0.002473
   2 C :    0.085298   -0.000241
   3 O :   -0.328893    0.000027
   4 C :   -0.281925    0.006119
   5 C :   -0.265417    0.000992
   6 C :    0.125059   -0.089785
   7 O :   -0.149536    0.500114
   8 O :   -0.144191    0.573092
   9 H :    0.256001   -0.000161
  10 H :    0.167891    0.000950
  11 C :    0.170721   -0.000349
  12 N :   -0.095651    0.000254
  13 H :    0.235397   -0.000009
  14 O :   -0.317217    0.001328
  15 C :   -0.550297    0.000005
  16 H :    0.188020    0.000021
  17 H :    0.189214   -0.000006
  18 H :    0.150147   -0.000006
  19 C :   -0.456265   -0.000025
  20 H :    0.169150    0.000013
  21 H :    0.165153    0.000008
  22 H :    0.200418   -0.000000
  23 H :    0.156416   -0.000312
  24 H :    0.194801   -0.000065
  25 H :    0.192562   -0.000726
  26 H :    0.187491    0.002377
Sum of atomic charges         :   -0.0000000

LOEWDIN ATOMIC CHARGES AND SPIN POPULATIONS
-------------------------------------------
   0 N :    0.061307    0.002909
   1 C :   -0.046355    0.002309
   2 C :   -0.098011   -0.000086
   3 O :   -0.193283   -0.000131
   4 C :   -0.037387    0.005902
   5 C :   -0.035699   -0.000334
   6 C :   -0.114387   -0.027527
   7 O :   -0.029215    0.472629
   8 O :   -0.007385    0.540625
   9 H :    0.091529    0.000055
  10 H :    0.068109    0.000470
  11 C :   -0.102277   -0.000095
  12 N :    0.045678    0.000170
  13 H :    0.081671   -0.000001
  14 O :   -0.190709    0.001226
  15 C :   -0.040104    0.000012
  16 H :    0.055796    0.000017
  17 H :    0.055958   -0.000003
  18 H :    0.034525   -0.000003
  19 C :    0.015100   -0.000005
  20 H :    0.033674    0.000009
  21 H :    0.033766    0.000008
  22 H :    0.055063   -0.000000
  23 H :    0.051407    0.000189
  24 H :    0.063982   -0.000025
  25 H :    0.078130   -0.001150
  26 H :    0.069120    0.002829

  Mayer bond orders larger than 0.100000
B(  0-N ,  1-C ) :   1.0150 B(  0-N ,  9-H ) :   0.8924 B(  0-N , 11-C ) :   1.1942
B(  1-C ,  2-C ) :   0.8982 B(  1-C ,  4-C ) :   0.9439 B(  1-C , 10-H ) :   0.9702
B(  1-C , 14-O ) :   0.1433 B(  2-C ,  3-O ) :   1.8701 B(  2-C , 12-N ) :   1.1987
B(  4-C ,  5-C ) :   0.9442 B(  4-C , 23-H ) :   0.9623 B(  4-C , 24-H ) :   0.9571
B(  5-C ,  6-C ) :   0.9207 B(  5-C , 25-H ) :   0.9381 B(  5-C , 26-H ) :   0.9609
B(  6-C ,  7-O ) :   1.5718 B(  6-C ,  8-O ) :   1.4961 B(  7-O ,  8-O ) :   0.4184
B( 11-C , 14-O ) :   1.8711 B( 11-C , 15-C ) :   0.8974 B( 12-N , 13-H ) :   0.9285
B( 12-N , 19-C ) :   0.9671 B( 15-C , 16-H ) :   0.9555 B( 15-C , 17-H ) :   0.9584
B( 15-C , 18-H ) :   0.9751 B( 19-C , 20-H ) :   0.9581 B( 19-C , 21-H ) :   0.9589
B( 19-C , 22-H ) :   0.9437

FINAL SINGLE POINT ENERGY      -722.829910192006

DIPOLE MOMENT
-------------
                                X             Y             Z
Electronic contribution:      2.46444       7.56683      -4.73552
Nuclear contribution   :     -2.17271      -8.78729       6.09417
                        -----------------------------------------
Total Dipole Moment    :      0.29174      -1.22046       1.35865
                        -----------------------------------------
Magnitude (a.u.)       :      1.84947
Magnitude (Debye)      :      4.70099

Rotational constants in cm-1:     0.019844     0.016389     0.010477
Rotational constants in MHz :   594.897100   491.325650   314.085792

CHEMICAL SHIELDING SUMMARY (ppm)  --  Orbital contribution
----------------------------------------------------------

  Nucleus  Element    Isotropic     Anisotropy
  -------  -------  ------------   ------------
      7       O         -585.568      -1490.875
      8       O         -710.726      -1705.414
     25       H           29.740          5.855
     26       H           29.424          5.505

                             ****ORCA TERMINATED NORMALLY****
TOTAL RUN TIME: 0 days 0 hours 2 minutes 22 seconds 997 msec
