                         Program Version 5.0.4 -  RELEASE  -
|  1> ! M062X def2-TZVP OPT FREQ
|  2> %pal nprocs 16 end
|  3> *XYZFile 0 2 opt.xyz
|  4>
|  5>                          ****END OF INPUT****
 Total Charge           Charge          ....    0
 Multiplicity           Mult            ....    2
 Number of Electrons    NEL             ....  107
FINAL SINGLE POINT ENERGY      -723.045418787472
FINAL SINGLE POINT ENERGY      -723.048926962659
FINAL SINGLE POINT ENERGY      -723.049036440959
FINAL SINGLE POINT ENERGY      -723.049050415001
FINAL SINGLE POINT ENERGY      -723.049065211106
FINAL SINGLE POINT ENERGY      -723.049073401577
FINAL SINGLE POINT ENERGY      -723.049095613839
FINAL SINGLE POINT ENERGY      -723.049099426882
FINAL SINGLE POINT ENERGY      -723.049105889718
FINAL SINGLE POINT ENERGY      -723.049112598937
FINAL SINGLE POINT ENERGY      -723.049116690236
                    ***********************HURRAY********************

CARTESIAN COORDINATES (ANGSTROEM)
---------------------------------
  N     -4.439751   -4.658415   -0.707888
  C     -3.000444   -4.719605   -0.686458
  C     -2.569659   -4.683225    0.780297
  O     -3.351346   -4.372735    1.659728
  C     -2.353519   -3.568054   -1.469631
  C     -2.712224   -2.206151   -0.885285
  C     -1.977089   -1.098365   -1.560717
  O     -0.867388   -1.197544   -2.107754
  O     -2.392077    0.087256   -1.627183
  H     -4.885525   -4.471756    0.178692
  H     -2.679378   -5.660076   -1.144015
  C     -5.147889   -5.024530   -1.806689
  N     -1.268988   -4.964423    1.000378
  H     -0.707601   -5.261877    0.219886
  O     -4.604194   -5.344150   -2.846164
  C     -6.650463   -4.999139   -1.659152
  H     -7.051723   -4.252339   -2.343387
  H     -7.039884   -5.969135   -1.963203
  H     -6.977252   -4.773673   -0.645817
  C     -0.677823   -4.953368    2.324315
  H     -0.421477   -5.962900    2.647143
  H      0.219118   -4.335157    2.336602
  H     -1.411355   -4.538795    3.010377
  H     -1.269099   -3.691255   -1.475419
  H     -2.693057   -3.640730   -2.502887
  H     -2.445576   -2.147628    0.176204
  H     -3.781741   -2.002685   -0.952190

 Multiplicity           Mult            ....    2
 Number of Electrons    NEL             ....  107
 Basis Dimension        Dim             ....  512

ORBITAL ENERGIES
----------------
                 SPIN UP ORBITALS
  NO   OCC          E(Eh)            E(eV)
   0   1.0000     -19.696990      -535.9823
   1   1.0000     -19.680448      -535.5322
   2   1.0000     -19.620546      -533.9022
   3   1.0000     -19.596053      -533.2357
   4   1.0000     -14.800599      -402.7448
   5   1.0000     -14.779209      -402.1627
   6   1.0000     -10.696508      -291.0668
   7   1.0000     -10.667723      -290.2835
   8   1.0000     -10.649546      -289.7889
   9   1.0000     -10.607318      -288.6398
  10   1.0000     -10.587483      -288.1000
  11   1.0000     -10.575015      -287.7608
  12   1.0000     -10.566216      -287.5214
  13   1.0000     -10.545872      -286.9678
  14   1.0000      -1.279102       -34.8061
  15   1.0000      -1.195482       -32.5307
  16   1.0000      -1.170068       -31.8392
  17   1.0000      -1.149662       -31.2839
  18   1.0000      -1.062123       -28.9018
  19   1.0000      -1.048989       -28.5445
  20   1.0000      -0.931697       -25.3528
  21   1.0000      -0.872448       -23.7405
  22   1.0000      -0.838537       -22.8177
  23   1.0000      -0.805663       -21.9232
  24   1.0000      -0.745398       -20.2833
  25   1.0000      -0.698036       -18.9945
  26   1.0000      -0.677259       -18.4292
  27   1.0000      -0.656334       -17.8598
  28   1.0000      -0.636207       -17.3121
  29   1.0000      -0.622286       -16.9333
  30   1.0000      -0.590906       -16.0794
  31   1.0000      -0.584252       -15.8983
  32   1.0000      -0.571949       -15.5635
  33   1.0000      -0.563859       -15.3434
  34   1.0000      -0.558355       -15.1936
  35   1.0000      -0.549991       -14.9660
  36   1.0000      -0.538044       -14.6409
  37   1.0000      -0.526436       -14.3250
  38   1.0000      -0.510667       -13.8960
  39   1.0000      -0.499892       -13.6028
  40   1.0000      -0.486756       -13.2453
  41   1.0000      -0.480277       -13.0690
  42   1.0000      -0.472500       -12.8574
  43   1.0000      -0.465834       -12.6760
  44   1.0000      -0.451881       -12.2963
  45   1.0000      -0.445676       -12.1275
  46   1.0000      -0.438830       -11.9412
  47   1.0000      -0.421807       -11.4780
  48   1.0000      -0.420438       -11.4407
  49   1.0000      -0.415863       -11.3162
  50   1.0000      -0.362881        -9.8745
  51   1.0000      -0.351928        -9.5765
  52   1.0000      -0.339073        -9.2266
  53   1.0000      -0.330341        -8.9890
  54   0.0000       0.022664         0.6167
  55   0.0000       0.034684         0.9438
  56   0.0000       0.041921         1.1407
  57   0.0000       0.054246         1.4761
  58   0.0000       0.059469         1.6182

                 SPIN DOWN ORBITALS
  NO   OCC          E(Eh)            E(eV)
   0   1.0000     -19.684740      -535.6490
   1   1.0000     -19.670653      -535.2657
   2   1.0000     -19.620548      -533.9023
   3   1.0000     -19.596046      -533.2355
   4   1.0000     -14.800598      -402.7448
   5   1.0000     -14.779191      -402.1622
   6   1.0000     -10.697282      -291.0879
   7   1.0000     -10.667724      -290.2835
   8   1.0000     -10.649547      -289.7889
   9   1.0000     -10.607281      -288.6388
  10   1.0000     -10.587483      -288.1000
  11   1.0000     -10.575107      -287.7633
  12   1.0000     -10.566123      -287.5188
  13   1.0000     -10.545872      -286.9678
  14   1.0000      -1.248173       -33.9645
  15   1.0000      -1.195479       -32.5306
  16   1.0000      -1.170046       -31.8386
  17   1.0000      -1.108184       -30.1552
  18   1.0000      -1.062120       -28.9017
  19   1.0000      -1.048905       -28.5421
  20   1.0000      -0.930556       -25.3217
  21   1.0000      -0.871356       -23.7108
  22   1.0000      -0.838493       -22.8166
  23   1.0000      -0.804735       -21.8980
  24   1.0000      -0.744187       -20.2504
  25   1.0000      -0.698030       -18.9944
  26   1.0000      -0.674370       -18.3505
  27   1.0000      -0.641748       -17.4628
  28   1.0000      -0.635985       -17.3060
  29   1.0000      -0.588964       -16.0265
  30   1.0000      -0.585368       -15.9287
  31   1.0000      -0.575274       -15.6540
  32   1.0000      -0.564905       -15.3718
  33   1.0000      -0.555287       -15.1101
  34   1.0000      -0.551750       -15.0139
  35   1.0000      -0.544344       -14.8124
  36   1.0000      -0.534019       -14.5314
  37   1.0000      -0.521828       -14.1997
  38   1.0000      -0.503354       -13.6970
  39   1.0000      -0.498161       -13.5556
  40   1.0000      -0.485152       -13.2016
  41   1.0000      -0.480221       -13.0675
  42   1.0000      -0.472060       -12.8454
  43   1.0000      -0.462539       -12.5863
  44   1.0000      -0.450390       -12.2557
  45   1.0000      -0.442134       -12.0311
  46   1.0000      -0.427975       -11.6458
  47   1.0000      -0.391041       -10.6408
  48   1.0000      -0.363106        -9.8806
  49   1.0000      -0.361655        -9.8411
  50   1.0000      -0.351844        -9.5742
  51   1.0000      -0.339012        -9.2250
  52   1.0000      -0.330346        -8.9892
  53   0.0000      -0.140519        -3.8237
  54   0.0000       0.025148         0.6843
  55   0.0000       0.035630         0.9696
  56   0.0000       0.042693         1.1617
  57   0.0000       0.054363         1.4793

MULLIKEN ATOMIC CHARGES AND SPIN POPULATIONS
--------------------------------------------
   0 N :   -0.408281    0.000843
   1 C :   -0.082320    0.002562
   2 C :    0.347344   -0.001201
   3 O :   -0.409662   -0.000013
   4 C :   -0.351276   -0.001973
   5 C :   -0.315121    0.019592
   6 C :    0.387858   -0.135139
   7 O :   -0.248120    0.479548
   8 O :   -0.205334    0.636152
   9 H :    0.272357    0.000033
  10 H :    0.198384    0.000337
  11 C :    0.387769    0.000092
  12 N :   -0.345519    0.000203
  13 H :    0.251463    0.000099
  14 O :   -0.404631    0.000391
  15 C :   -0.453083   -0.000006
  16 H :    0.160833    0.000020
  17 H :    0.162603   -0.000006
  18 H :    0.130177   -0.000004
  19 C :   -0.311410   -0.000013
  20 H :    0.151169    0.000002
  21 H :    0.149873   -0.000004
  22 H :    0.183831   -0.000006
  23 H :    0.176647   -0.000388
  24 H :    0.213107    0.000084
  25 H :    0.185991   -0.001121
  26 H :    0.175351   -0.000083
Sum of atomic charges         :    0.0000000

LOEWDIN ATOMIC CHARGES AND SPIN POPULATIONS
-------------------------------------------
   0 N :    0.141876    0.000768
   1 C :   -0.249304    0.001481
   2 C :   -0.445977   -0.000038
   3 O :    0.059217   -0.000047
   4 C :   -0.223979    0.004740
   5 C :   -0.216990   -0.000221
   6 C :   -0.558229    0.013354
   7 O :    0.188333    0.417802
   8 O :    0.219777    0.560729
   9 H :    0.195587    0.000009
  10 H :    0.167020    0.000126
  11 C :   -0.480517    0.000134
  12 N :    0.103892    0.000031
  13 H :    0.188909    0.000008
  14 O :    0.058483    0.000301
  15 C :   -0.260808    0.000012
  16 H :    0.140056    0.000010
  17 H :    0.140171   -0.000001
  18 H :    0.122821   -0.000001
  19 C :   -0.297826   -0.000002
  20 H :    0.117326    0.000001
  21 H :    0.117748   -0.000000
  22 H :    0.134695   -0.000001
  23 H :    0.145754    0.000359
  24 H :    0.159362    0.000013
  25 H :    0.171219   -0.001018
  26 H :    0.161386    0.001451

  Mayer bond orders larger than 0.100000
B(  0-N ,  1-C ) :   0.9251 B(  0-N ,  9-H ) :   0.8763 B(  0-N , 11-C ) :   1.1935
B(  1-C ,  2-C ) :   0.9376 B(  1-C ,  4-C ) :   0.8756 B(  1-C , 10-H ) :   0.9860
B(  2-C ,  3-O ) :   1.9002 B(  2-C , 12-N ) :   1.2425 B(  4-C ,  5-C ) :   0.8489
B(  4-C , 23-H ) :   0.9796 B(  4-C , 24-H ) :   0.9550 B(  5-C ,  6-C ) :   0.9882
B(  5-C , 25-H ) :   0.9301 B(  5-C , 26-H ) :   0.9534 B(  6-C ,  7-O ) :   1.6880
B(  6-C ,  8-O ) :   1.5656 B(  7-O ,  8-O ) :   0.3793 B( 11-C , 14-O ) :   1.9222
B( 11-C , 15-C ) :   0.9125 B( 12-N , 13-H ) :   0.9165 B( 12-N , 19-C ) :   0.8992
B( 15-C , 16-H ) :   0.9539 B( 15-C , 17-H ) :   0.9635 B( 15-C , 18-H ) :   0.9863
B( 19-C , 20-H ) :   0.9687 B( 19-C , 21-H ) :   0.9665 B( 19-C , 22-H ) :   0.9618

FINAL SINGLE POINT ENERGY      -723.049120978247

DIPOLE MOMENT
-------------
                                X             Y             Z
Electronic contribution:      2.32629       7.12946      -4.61536
Nuclear contribution   :     -2.08385      -8.26718       5.95878
                        -----------------------------------------
Total Dipole Moment    :      0.24244      -1.13772       1.34342
                        -----------------------------------------
Magnitude (a.u.)       :      1.77706
Magnitude (Debye)      :      4.51693

VIBRATIONAL FREQUENCIES
-----------------------

Scaling factor for frequencies =  1.000000000  (already applied!)

   0:         0.00 cm**-1
   1:         0.00 cm**-1
   2:         0.00 cm**-1
   3:         0.00 cm**-1
   4:         0.00 cm**-1
   5:         0.00 cm**-1
   6:        20.49 cm**-1
   7:        35.96 cm**-1
   8:        46.78 cm**-1
   9:        62.38 cm**-1
  10:        66.59 cm**-1
  11:        86.67 cm**-1
  12:        97.48 cm**-1
  13:       117.29 cm**-1
  14:       159.44 cm**-1
  15:       167.50 cm**-1
  16:       192.81 cm**-1
  17:       211.76 cm**-1
  18:       246.36 cm**-1
  19:       299.92 cm**-1
  20:       326.64 cm**-1
  21:       383.27 cm**-1
  22:       396.97 cm**-1
  23:       464.06 cm**-1
  24:       528.55 cm**-1
  25:       533.98 cm**-1
  26:       546.34 cm**-1
  27:       559.56 cm**-1
  28:       608.18 cm**-1
  29:       644.52 cm**-1
  30:       667.00 cm**-1
  31:       696.17 cm**-1
  32:       777.66 cm**-1
  33:       809.38 cm**-1
  34:       856.04 cm**-1
  35:       895.26 cm**-1
  36:       937.02 cm**-1
  37:       973.50 cm**-1
  38:      1005.72 cm**-1
  39:      1015.65 cm**-1
  40:      1055.76 cm**-1
  41:      1066.58 cm**-1
  42:      1072.44 cm**-1
  43:      1106.51 cm**-1
  44:      1160.64 cm**-1
  45:      1171.28 cm**-1
  46:      1186.45 cm**-1
  47:      1222.64 cm**-1
  48:      1244.77 cm**-1
  49:      1273.87 cm**-1
  50:      1279.67 cm**-1
  51:      1316.87 cm**-1
  52:      1343.82 cm**-1
  53:      1386.12 cm**-1
  54:      1405.52 cm**-1
  55:      1410.83 cm**-1
  56:      1452.47 cm**-1
  57:      1457.87 cm**-1
  58:      1475.31 cm**-1
  59:      1486.16 cm**-1
  60:      1496.94 cm**-1
  61:      1506.76 cm**-1
  62:      1514.16 cm**-1
  63:      1543.41 cm**-1
  64:      1594.81 cm**-1
  65:      1650.31 cm**-1
  66:      1779.38 cm**-1
  67:      1791.81 cm**-1
  68:      3067.01 cm**-1
  69:      3076.20 cm**-1
  70:      3080.46 cm**-1
  71:      3089.83 cm**-1
  72:      3099.55 cm**-1
  73:      3135.23 cm**-1
  74:      3148.66 cm**-1
  75:      3154.24 cm**-1
  76:      3173.10 cm**-1
  77:      3181.09 cm**-1
  78:      3195.24 cm**-1
  79:      3612.83 cm**-1
  80:      3655.85 cm**-1

IR SPECTRUM
-----------

 Mode   freq       eps      Int      T**2         TX        TY        TZ
       cm**-1   L/(mol*cm) km/mol    a.u.
----------------------------------------------------------------------------
  6:     20.49   0.000124    0.63  0.001886  ( 0.015894 -0.000686  0.040410)
  7:     35.96   0.000537    2.71  0.004656  ( 0.026356 -0.051800  0.035752)
  8:     46.78   0.000258    1.30  0.001718  ( 0.016623  0.037871  0.002796)
  9:     62.38   0.000464    2.35  0.002322  ( 0.035546  0.002791  0.032415)
 10:     66.59   0.000592    2.99  0.002773  ( 0.015130  0.050429 -0.000963)
 11:     86.67   0.000310    1.57  0.001116  (-0.027880 -0.017474 -0.005817)
 12:     97.48   0.001855    9.37  0.005938  ( 0.001571  0.071232 -0.029349)
 13:    117.29   0.001527    7.72  0.004062  ( 0.042569 -0.025802  0.039803)
 14:    159.44   0.000347    1.75  0.000680  (-0.005614  0.015746 -0.020003)
 15:    167.50   0.002786   14.08  0.005190  ( 0.043697  0.048396  0.030630)
 16:    192.81   0.000305    1.54  0.000494  ( 0.015763  0.001973  0.015559)
 17:    211.76   0.000314    1.59  0.000462  ( 0.009550 -0.013065  0.014154)
 18:    246.36   0.000532    2.69  0.000674  (-0.023685 -0.003743 -0.009934)
 19:    299.92   0.000718    3.63  0.000747  ( 0.021761  0.011680  0.011691)
 20:    326.64   0.000411    2.08  0.000393  (-0.016122 -0.011507  0.000738)
 21:    383.27   0.016486   83.32  0.013423  (-0.069998  0.091605 -0.011494)
 22:    396.97   0.011323   57.22  0.008901  ( 0.003332 -0.086553 -0.037398)
 23:    464.06   0.007387   37.33  0.004967  ( 0.023796  0.061163 -0.025693)
 24:    528.55   0.003473   17.55  0.002051  ( 0.030199 -0.029551  0.016291)
 25:    533.98   0.003406   17.21  0.001991  ( 0.043977 -0.006150  0.004351)
 26:    546.34   0.030161  152.42  0.017228  (-0.001639 -0.128683  0.025807)
 27:    559.56   0.001036    5.23  0.000578  (-0.006532 -0.023126  0.000269)
 28:    608.18   0.008912   45.04  0.004573  ( 0.032472 -0.057393 -0.014988)
 29:    644.52   0.002711   13.70  0.001313  (-0.026309 -0.017910 -0.017310)
 30:    667.00   0.000825    4.17  0.000386  (-0.010855  0.011742 -0.011422)
 31:    696.17   0.000296    1.49  0.000132  (-0.010680 -0.004079  0.001324)
 32:    777.66   0.012090   61.10  0.004852  (-0.033789  0.053661  0.028819)
 33:    809.38   0.005711   28.86  0.002202  (-0.033209  0.028785 -0.016444)
 34:    856.04   0.035724  180.54  0.013023  ( 0.083814 -0.074940 -0.019551)
 35:    895.26   0.000262    1.32  0.000091  ( 0.005289 -0.006526 -0.004563)
 36:    937.02   0.001281    6.47  0.000426  ( 0.014262 -0.005348 -0.013945)
 37:    973.50   0.005382   27.20  0.001725  ( 0.033551 -0.018899 -0.015564)
 38:   1005.72   0.004453   22.50  0.001382  (-0.036265  0.002522 -0.007757)
 39:   1015.65   0.001373    6.94  0.000422  ( 0.008939 -0.009846 -0.015656)
 40:   1055.76   0.000845    4.27  0.000250  ( 0.008347 -0.012574 -0.004702)
 41:   1066.58   0.001359    6.87  0.000398  ( 0.002068 -0.019622  0.002873)
 42:   1072.44   0.000920    4.65  0.000268  ( 0.015845 -0.001904 -0.003606)
 43:   1106.51   0.000195    0.99  0.000055  (-0.003592  0.006454  0.000742)
 44:   1160.64   0.000826    4.17  0.000222  (-0.013716 -0.001136 -0.005718)
 45:   1171.28   0.001342    6.78  0.000358  (-0.001166  0.001053 -0.018844)
 46:   1186.45   0.008082   40.84  0.002126  (-0.042780  0.012761 -0.011524)
 47:   1222.64   0.000571    2.89  0.000146  (-0.010508 -0.004660 -0.003687)
 48:   1244.77   0.004995   25.24  0.001252  ( 0.020491  0.004647  0.028473)
 49:   1273.87   0.009951   50.29  0.002438  ( 0.039975 -0.005660  0.028421)
 50:   1279.67   0.003069   15.51  0.000749  (-0.013939 -0.021338  0.009945)
 51:   1316.87   0.004092   20.68  0.000970  (-0.026266  0.007486 -0.014961)
 52:   1343.82   0.004809   24.30  0.001117  (-0.019688 -0.014641 -0.022688)
 53:   1386.12   0.002413   12.20  0.000543  ( 0.010609  0.000666  0.020744)
 54:   1405.52   0.003668   18.54  0.000814  (-0.023905 -0.003335 -0.015229)
 55:   1410.83   0.006233   31.50  0.001379  (-0.033416 -0.005281 -0.015300)
 56:   1452.47   0.002913   14.72  0.000626  (-0.018555  0.012239  0.011480)
 57:   1457.87   0.002143   10.83  0.000459  ( 0.016685 -0.003006 -0.013091)
 58:   1475.31   0.001710    8.64  0.000362  ( 0.003364  0.018460  0.003106)
 59:   1486.16   0.011954   60.41  0.002510  ( 0.022435  0.006513  0.044320)
 60:   1496.94   0.003001   15.16  0.000626  ( 0.016396  0.003127 -0.018626)
 61:   1506.76   0.015094   76.28  0.003126  ( 0.039993  0.003943  0.038874)
 62:   1514.16   0.002495   12.61  0.000514  (-0.004666  0.016475 -0.014869)
 63:   1543.41   0.096022  485.26  0.019415  ( 0.118040  0.027888  0.068583)
 64:   1594.81   0.031379  158.58  0.006140  ( 0.062756 -0.031876  0.034434)
 65:   1650.31   0.046041  232.67  0.008706  ( 0.032043  0.080015 -0.035734)
 66:   1779.38   0.087221  440.78  0.015297  ( 0.066148 -0.037986 -0.097355)
 67:   1791.81   0.015666   79.17  0.002728  ( 0.045879  0.005180  0.024428)
 68:   3067.01   0.001146    5.79  0.000117  (-0.002180 -0.010479  0.001441)
 69:   3076.20   0.003574   18.06  0.000363  (-0.014349  0.008868 -0.008835)
 70:   3080.46   0.006719   33.96  0.000681  (-0.018718  0.006797 -0.016856)
 71:   3089.83   0.000461    2.33  0.000047  (-0.005223  0.001032  0.004267)
 72:   3099.55   0.000940    4.75  0.000095  ( 0.009457 -0.002088  0.000927)
 73:   3135.23   0.000034    0.17  0.000003  ( 0.001709  0.000102  0.000675)
 74:   3148.66   0.002173   10.98  0.000215  ( 0.006336  0.013085 -0.002014)
 75:   3154.24   0.000439    2.22  0.000043  (-0.004528  0.003601 -0.003162)
 76:   3173.10   0.000300    1.52  0.000029  ( 0.002138  0.003078 -0.003930)
 77:   3181.09   0.001282    6.48  0.000126  (-0.003163  0.003662  0.010115)
 78:   3195.24   0.000003    0.01  0.000000  (-0.000410 -0.000026 -0.000279)
 79:   3612.83   0.020669  104.45  0.001785  (-0.002252 -0.006154 -0.041742)
 80:   3655.85   0.008628   43.60  0.000736  (-0.021337  0.009360  0.013914)

--------------------------
THERMOCHEMISTRY AT 298.15K
--------------------------

Temperature         ... 298.15 K
Pressure            ... 1.00 atm
Total Mass          ... 201.20 AMU

Throughout the following assumptions are being made:
  (1) The electronic state is orbitally nondegenerate
      but the spin degeneracy is treated
  (2) There are no thermally accessible electronically excited states
  (3) Hindered rotations indicated by low frequency modes are not
      treated as such but are treated as vibrations and this may
      cause some error
  (4) All equations used are the standard statistical mechanics
      equations for an ideal gas
  (5) All vibrations are strictly harmonic

freq.      20.49  E(vib)   ...       0.56
freq.      35.96  E(vib)   ...       0.54
freq.      46.78  E(vib)   ...       0.53
freq.      62.38  E(vib)   ...       0.51
freq.      66.59  E(vib)   ...       0.50
freq.      86.67  E(vib)   ...       0.48
freq.      97.48  E(vib)   ...       0.46
freq.     117.29  E(vib)   ...       0.44
freq.     159.44  E(vib)   ...       0.39
freq.     167.50  E(vib)   ...       0.38
freq.     192.81  E(vib)   ...       0.36
freq.     211.76  E(vib)   ...       0.34
freq.     246.36  E(vib)   ...       0.31
freq.     299.92  E(vib)   ...       0.26
freq.     326.64  E(vib)   ...       0.24
freq.     383.27  E(vib)   ...       0.20
freq.     396.97  E(vib)   ...       0.20
freq.     464.06  E(vib)   ...       0.16
freq.     528.55  E(vib)   ...       0.13
freq.     533.98  E(vib)   ...       0.13
freq.     546.34  E(vib)   ...       0.12
freq.     559.56  E(vib)   ...       0.12
freq.     608.18  E(vib)   ...       0.10
freq.     644.52  E(vib)   ...       0.09
freq.     667.00  E(vib)   ...       0.08
freq.     696.17  E(vib)   ...       0.07
freq.     777.66  E(vib)   ...       0.05
freq.     809.38  E(vib)   ...       0.05
freq.     856.04  E(vib)   ...       0.04
freq.     895.26  E(vib)   ...       0.03
freq.     937.02  E(vib)   ...       0.03
freq.     973.50  E(vib)   ...       0.03
freq.    1005.72  E(vib)   ...       0.02
freq.    1015.65  E(vib)   ...       0.02
freq.    1055.76  E(vib)   ...       0.02
freq.    1066.58  E(vib)   ...       0.02
freq.    1072.44  E(vib)   ...       0.02
freq.    1106.51  E(vib)   ...       0.02
freq.    1160.64  E(vib)   ...       0.01
freq.    1171.28  E(vib)   ...       0.01
freq.    1186.45  E(vib)   ...       0.01
freq.    1222.64  E(vib)   ...       0.01
freq.    1244.77  E(vib)   ...       0.01
freq.    1273.87  E(vib)   ...       0.01
freq.    1279.67  E(vib)   ...       0.01
freq.    1316.87  E(vib)   ...       0.01
freq.    1343.82  E(vib)   ...       0.01
freq.    1386.12  E(vib)   ...       0.00
freq.    1405.52  E(vib)   ...       0.00
freq.    1410.83  E(vib)   ...       0.00
freq.    1452.47  E(vib)   ...       0.00
freq.    1457.87  E(vib)   ...       0.00
freq.    1475.31  E(vib)   ...       0.00
freq.    1486.16  E(vib)   ...       0.00
freq.    1496.94  E(vib)   ...       0.00
freq.    1506.76  E(vib)   ...       0.00
freq.    1514.16  E(vib)   ...       0.00
freq.    1543.41  E(vib)   ...       0.00
freq.    1594.81  E(vib)   ...       0.00
freq.    1650.31  E(vib)   ...       0.00
freq.    1779.38  E(vib)   ...       0.00
freq.    1791.81  E(vib)   ...       0.00
freq.    3067.01  E(vib)   ...       0.00
freq.    3076.20  E(vib)   ...       0.00
freq.    3080.46  E(vib)   ...       0.00
freq.    3089.83  E(vib)   ...       0.00
freq.    3099.55  E(vib)   ...       0.00
freq.    3135.23  E(vib)   ...       0.00
freq.    3148.66  E(vib)   ...       0.00
freq.    3154.24  E(vib)   ...       0.00
freq.    3173.10  E(vib)   ...       0.00
freq.    3181.09  E(vib)   ...       0.00
freq.    3195.24  E(vib)   ...       0.00
freq.    3612.83  E(vib)   ...       0.00
freq.    3655.85  E(vib)   ...       0.00

------------
INNER ENERGY
------------

The inner energy is: U= E(el) + E(ZPE) + E(vib) + E(rot) + E(trans)
    E(el)   - is the total energy from the electronic structure calculation
              = E(kin-el) + E(nuc-el) + E(el-el) + E(nuc-nuc)
    E(ZPE)  - the the zero temperature vibrational energy from the frequency calculation
    E(vib)  - the the finite temperature correction to E(ZPE) due to population
              of excited vibrational states
    E(rot)  - is the rotational thermal energy
    E(trans)- is the translational thermal energy

Summary of contributions to the inner energy U:
Electronic energy                ...   -723.04912098 Eh
Zero point energy                ...      0.21770023 Eh     136.61 kcal/mol
Thermal vibrational correction   ...      0.01302526 Eh       8.17 kcal/mol
Thermal rotational correction    ...      0.00141627 Eh       0.89 kcal/mol
Thermal translational correction ...      0.00141627 Eh       0.89 kcal/mol
-----------------------------------------------------------------------
Total thermal energy                   -722.81556294 Eh

Summary of corrections to the electronic energy:
(perhaps to be used in another calculation)
Total thermal correction                  0.01585780 Eh       9.95 kcal/mol
Non-thermal (ZPE) correction              0.21770023 Eh     136.61 kcal/mol
-----------------------------------------------------------------------
Total correction                          0.23355803 Eh     146.56 kcal/mol

--------
ENTHALPY
--------

The enthalpy is H = U + kB*T
                kB is Boltzmann's constant
Total free energy                 ...   -722.81556294 Eh
Thermal Enthalpy correction       ...      0.00094421 Eh       0.59 kcal/mol
-----------------------------------------------------------------------
Total Enthalpy                    ...   -722.81461873 Eh

Note: Only C1 symmetry has been detected, increase convergence thresholds
      if your molecule has a higher symmetry. Symmetry factor of 1.0 is
      used for the rotational entropy correction.

Note: Rotational entropy computed according to Herzberg
Infrared and Raman Spectra, Chapter V,1, Van Nostrand Reinhold, 1945
Point Group:  C1, Symmetry Number:   1
Rotational constants in cm-1:     0.020417     0.017101     0.010871

Vibrational entropy computed according to the QRRHO of S. Grimme
Chem.Eur.J. 2012 18 9955

-------
ENTROPY
-------

The entropy contributions are T*S = T*(S(el)+S(vib)+S(rot)+S(trans))
     S(el)   - electronic entropy
     S(vib)  - vibrational entropy
     S(rot)  - rotational entropy
     S(trans)- translational entropy
The entropies will be listed as multiplied by the temperature to get

                             ****ORCA TERMINATED NORMALLY****
TOTAL RUN TIME: 0 days 0 hours 24 minutes 15 seconds 910 msec
