                         Program Version 5.0.4 -  RELEASE  -
|  1> ! B3LYP EPR-II OPT
|  2> %pal nprocs 16 end
|  3> *XYZFile 0 2 model.xyz
|  4>
|  5>                          ****END OF INPUT****
 Total Charge           Charge          ....    0
 Multiplicity           Mult            ....    2
 Number of Electrons    NEL             ....  107
FINAL SINGLE POINT ENERGY      -722.827668144989
FINAL SINGLE POINT ENERGY      -722.829882500750
FINAL SINGLE POINT ENERGY      -722.829960036498
FINAL SINGLE POINT ENERGY      -722.829985817406
FINAL SINGLE POINT ENERGY      -722.830012752015
FINAL SINGLE POINT ENERGY      -722.830012748555
FINAL SINGLE POINT ENERGY      -722.830072296187
FINAL SINGLE POINT ENERGY      -722.830098082392
FINAL SINGLE POINT ENERGY      -722.830127155460
FINAL SINGLE POINT ENERGY      -722.830167723303
FINAL SINGLE POINT ENERGY      -722.830255798405
FINAL SINGLE POINT ENERGY      -722.830269037409
FINAL SINGLE POINT ENERGY      -722.830283583414
FINAL SINGLE POINT ENERGY      -722.830302594522
FINAL SINGLE POINT ENERGY      -722.830335908645
FINAL SINGLE POINT ENERGY      -722.830372650745
FINAL SINGLE POINT ENERGY      -722.830391678194
FINAL SINGLE POINT ENERGY      -722.830400628268
FINAL SINGLE POINT ENERGY      -722.830403719003
                    ***********************HURRAY********************

CARTESIAN COORDINATES (ANGSTROEM)
---------------------------------
  N     -4.429999   -4.617090   -0.718484
  C     -2.978422   -4.656573   -0.690345
  C     -2.550999   -4.644616    0.792293
  O     -3.315962   -4.246701    1.673703
  C     -2.329809   -3.484164   -1.476582
  C     -2.731854   -2.097211   -0.939323
  C     -1.986971   -0.978533   -1.618522
  O     -0.819021   -1.077209   -2.089835
  O     -2.451610    0.193810   -1.761048
  H     -4.874945   -4.388446    0.161569
  H     -2.647050   -5.586678   -1.167467
  C     -5.147502   -5.089139   -1.786578
  N     -1.274125   -5.056798    1.028376
  H     -0.743117   -5.426850    0.254194
  O     -4.601908   -5.487975   -2.815148
  C     -6.663784   -5.069358   -1.628098
  H     -7.081494   -4.375212   -2.363040
  H     -7.048104   -6.065814   -1.859845
  H     -6.994254   -4.774649   -0.628602
  C     -0.679754   -5.093630    2.362060
  H     -0.534921   -6.125099    2.700799
  H      0.284114   -4.576039    2.366035
  H     -1.362370   -4.590509    3.046803
  H     -1.240690   -3.591219   -1.448258
  H     -2.636593   -3.583605   -2.521492
  H     -2.512078   -2.007113    0.133056
  H     -3.804181   -1.914035   -1.056437

 Multiplicity           Mult            ....    2
 Number of Electrons    NEL             ....  107
 Basis Dimension        Dim             ....  329

ORBITAL ENERGIES
----------------
                 SPIN UP ORBITALS
  NO   OCC          E(Eh)            E(eV)
   0   1.0000     -19.209574      -522.7191
   1   1.0000     -19.202356      -522.5227
   2   1.0000     -19.136759      -520.7377
   3   1.0000     -19.113108      -520.0941
   4   1.0000     -14.386585      -391.4789
   5   1.0000     -14.364303      -390.8726
   6   1.0000     -10.347879      -281.5801
   7   1.0000     -10.318343      -280.7764
   8   1.0000     -10.301144      -280.3084
   9   1.0000     -10.257577      -279.1229
  10   1.0000     -10.235501      -278.5221
  11   1.0000     -10.225129      -278.2399
  12   1.0000     -10.216734      -278.0115
  13   1.0000     -10.195734      -277.4400
  14   1.0000      -1.135486       -30.8981
  15   1.0000      -1.060092       -28.8466
  16   1.0000      -1.035939       -28.1893
  17   1.0000      -1.020705       -27.7748
  18   1.0000      -0.945524       -25.7290
  19   1.0000      -0.931523       -25.3480
  20   1.0000      -0.821895       -22.3649
  21   1.0000      -0.768898       -20.9228
  22   1.0000      -0.738668       -20.1002
  23   1.0000      -0.710080       -19.3223
  24   1.0000      -0.652248       -17.7486
  25   1.0000      -0.611164       -16.6306
  26   1.0000      -0.589433       -16.0393
  27   1.0000      -0.562761       -15.3135
  28   1.0000      -0.552127       -15.0241
  29   1.0000      -0.526885       -14.3373
  30   1.0000      -0.501914       -13.6578
  31   1.0000      -0.495307       -13.4780
  32   1.0000      -0.488091       -13.2816
  33   1.0000      -0.479245       -13.0409
  34   1.0000      -0.471451       -12.8288
  35   1.0000      -0.467419       -12.7191
  36   1.0000      -0.456336       -12.4175
  37   1.0000      -0.448162       -12.1951
  38   1.0000      -0.433941       -11.8081
  39   1.0000      -0.422251       -11.4900
  40   1.0000      -0.413022       -11.2389
  41   1.0000      -0.408613       -11.1189
  42   1.0000      -0.402255       -10.9459
  43   1.0000      -0.388014       -10.5584
  44   1.0000      -0.381457       -10.3800
  45   1.0000      -0.377745       -10.2790
  46   1.0000      -0.362286        -9.8583
  47   1.0000      -0.346924        -9.4403
  48   1.0000      -0.341640        -9.2965
  49   1.0000      -0.334618        -9.1054
  50   1.0000      -0.285653        -7.7730
  51   1.0000      -0.283861        -7.7242
  52   1.0000      -0.264121        -7.1871
  53   1.0000      -0.258871        -7.0442
  54   0.0000      -0.020877        -0.5681
  55   0.0000      -0.003722        -0.1013
  56   0.0000       0.000102         0.0028
  57   0.0000       0.014979         0.4076
  58   0.0000       0.016488         0.4486

                 SPIN DOWN ORBITALS
  NO   OCC          E(Eh)            E(eV)
   0   1.0000     -19.194200      -522.3007
   1   1.0000     -19.188714      -522.1515
   2   1.0000     -19.136763      -520.7378
   3   1.0000     -19.113076      -520.0932
   4   1.0000     -14.386581      -391.4788
   5   1.0000     -14.364225      -390.8704
   6   1.0000     -10.349080      -281.6128
   7   1.0000     -10.318346      -280.7765
   8   1.0000     -10.301152      -280.3086
   9   1.0000     -10.257514      -279.1211
  10   1.0000     -10.235501      -278.5222
  11   1.0000     -10.225196      -278.2417
  12   1.0000     -10.216588      -278.0075
  13   1.0000     -10.195733      -277.4400
  14   1.0000      -1.107503       -30.1367
  15   1.0000      -1.060089       -28.8465
  16   1.0000      -1.035874       -28.1876
  17   1.0000      -0.984256       -26.7830
  18   1.0000      -0.945518       -25.7288
  19   1.0000      -0.931360       -25.3436
  20   1.0000      -0.820775       -22.3344
  21   1.0000      -0.767929       -20.8964
  22   1.0000      -0.738646       -20.0996
  23   1.0000      -0.709283       -19.3006
  24   1.0000      -0.651296       -17.7227
  25   1.0000      -0.611153       -16.6303
  26   1.0000      -0.588277       -16.0078
  27   1.0000      -0.552635       -15.0380
  28   1.0000      -0.551699       -15.0125
  29   1.0000      -0.503147       -13.6913
  30   1.0000      -0.498614       -13.5680
  31   1.0000      -0.490086       -13.3359
  32   1.0000      -0.484529       -13.1847
  33   1.0000      -0.471625       -12.8336
  34   1.0000      -0.468345       -12.7443
  35   1.0000      -0.463347       -12.6083
  36   1.0000      -0.452824       -12.3220
  37   1.0000      -0.444308       -12.0902
  38   1.0000      -0.429101       -11.6764
  39   1.0000      -0.420534       -11.4433
  40   1.0000      -0.412999       -11.2383
  41   1.0000      -0.407525       -11.0893
  42   1.0000      -0.401986       -10.9386
  43   1.0000      -0.386583       -10.5195
  44   1.0000      -0.380325       -10.3492
  45   1.0000      -0.376287       -10.2393
  46   1.0000      -0.355716        -9.6795
  47   1.0000      -0.317183        -8.6310
  48   1.0000      -0.297988        -8.1087
  49   1.0000      -0.285654        -7.7730
  50   1.0000      -0.283668        -7.7190
  51   1.0000      -0.264029        -7.1846
  52   1.0000      -0.258815        -7.0427
  53   0.0000      -0.184325        -5.0157
  54   0.0000      -0.018067        -0.4916
  55   0.0000      -0.002804        -0.0763
  56   0.0000       0.000207         0.0056
  57   0.0000       0.015105         0.4110

MULLIKEN ATOMIC CHARGES AND SPIN POPULATIONS
--------------------------------------------
   0 N :   -0.121545    0.003908
   1 C :   -0.121050    0.002463
   2 C :    0.085446   -0.000239
   3 O :   -0.329126    0.000029
   4 C :   -0.281294    0.006087
   5 C :   -0.264493    0.001005
   6 C :    0.125329   -0.089749
   7 O :   -0.149369    0.501296
   8 O :   -0.144497    0.571910
   9 H :    0.255534   -0.000161
  10 H :    0.166917    0.000947
  11 C :    0.171111   -0.000343
  12 N :   -0.094984    0.000251
  13 H :    0.234955   -0.000009
  14 O :   -0.317618    0.001320
  15 C :   -0.549150   -0.000001
  16 H :    0.187636    0.000022
  17 H :    0.188891   -0.000006
  18 H :    0.149669   -0.000006
  19 C :   -0.455450   -0.000026
  20 H :    0.168817    0.000013
  21 H :    0.164799    0.000008
  22 H :    0.200066   -0.000000
  23 H :    0.155925   -0.000312
  24 H :    0.194424   -0.000064
  25 H :    0.192048   -0.000720
  26 H :    0.187010    0.002377
Sum of atomic charges         :   -0.0000000

LOEWDIN ATOMIC CHARGES AND SPIN POPULATIONS
-------------------------------------------
   0 N :    0.061400    0.002906
   1 C :   -0.046312    0.002296
   2 C :   -0.097891   -0.000088
   3 O :   -0.193451   -0.000125
   4 C :   -0.037314    0.005889
   5 C :   -0.035615   -0.000339
   6 C :   -0.114527   -0.027527
   7 O :   -0.028893    0.473756
   8 O :   -0.007510    0.539535
   9 H :    0.091457    0.000055
  10 H :    0.068038    0.000467
  11 C :   -0.102210   -0.000092
  12 N :    0.045868    0.000168
  13 H :    0.081610   -0.000000
  14 O :   -0.190757    0.001219
  15 C :   -0.039959    0.000011
  16 H :    0.055742    0.000017
  17 H :    0.055906   -0.000003
  18 H :    0.034473   -0.000003
  19 C :    0.015130   -0.000005
  20 H :    0.033627    0.000009
  21 H :    0.033720    0.000008
  22 H :    0.055013   -0.000000
  23 H :    0.051354    0.000190
  24 H :    0.063946   -0.000026
  25 H :    0.078068   -0.001146
  26 H :    0.069088    0.002831

  Mayer bond orders larger than 0.100000
B(  0-N ,  1-C ) :   1.0153 B(  0-N ,  9-H ) :   0.8925 B(  0-N , 11-C ) :   1.1941
B(  1-C ,  2-C ) :   0.8984 B(  1-C ,  4-C ) :   0.9438 B(  1-C , 10-H ) :   0.9703
B(  1-C , 14-O ) :   0.1432 B(  2-C ,  3-O ) :   1.8702 B(  2-C , 12-N ) :   1.1986
B(  4-C ,  5-C ) :   0.9445 B(  4-C , 23-H ) :   0.9624 B(  4-C , 24-H ) :   0.9572
B(  5-C ,  6-C ) :   0.9207 B(  5-C , 25-H ) :   0.9382 B(  5-C , 26-H ) :   0.9610
B(  6-C ,  7-O ) :   1.5708 B(  6-C ,  8-O ) :   1.4968 B(  7-O ,  8-O ) :   0.4186
B( 11-C , 14-O ) :   1.8710 B( 11-C , 15-C ) :   0.8977 B( 12-N , 13-H ) :   0.9286
B( 12-N , 19-C ) :   0.9674 B( 15-C , 16-H ) :   0.9557 B( 15-C , 17-H ) :   0.9586
B( 15-C , 18-H ) :   0.9749 B( 19-C , 20-H ) :   0.9583 B( 19-C , 21-H ) :   0.9590
B( 19-C , 22-H ) :   0.9437

FINAL SINGLE POINT ENERGY      -722.830404951575

DIPOLE MOMENT
-------------
                                X             Y             Z
Electronic contribution:      2.46519       7.56670      -4.73626
Nuclear contribution   :     -2.17271      -8.78729       6.09417
                        -----------------------------------------
Total Dipole Moment    :      0.29248      -1.22058       1.35790
                        -----------------------------------------
Magnitude (a.u.)       :      1.84913
Magnitude (Debye)      :      4.70010

Rotational constants in cm-1:     0.019844     0.016389     0.010477
Rotational constants in MHz :   594.897100   491.325650   314.085792

                             ****ORCA TERMINATED NORMALLY****
TOTAL RUN TIME: 0 days 0 hours 14 minutes 58 seconds 241 msec
