                         Program Version 5.0.4 -  RELEASE  -
|  1> ! B3LYP EPR-II AUTOAUX
|  2> %pal nprocs 16 end
|  3> *XYZFile 0 2 opt.xyz
|  4> %EPRNMR
|  5>         GTENSOR   TRUE
|  6>         NUCLEI    = 1,4,9,10,11,12,13,14,15,16,17,18,20,21,31,32 {SHIFT, AISO, ADIP, AORB}
|  7>         ORI       GIAO
|  8> END
|  9>
| 10>                          ****END OF INPUT****

CARTESIAN COORDINATES (ANGSTROEM)
---------------------------------
  N     -1.990716    0.765157    0.772090
  C     -1.560882   -0.045108   -0.367129
  C     -1.829908   -1.525831    0.041578
  O     -2.490392   -1.813845    1.041193
  C     -0.130950    0.202782   -0.780680
  C      0.991809    0.156449    0.213895
  C      2.365163   -0.125579   -0.427623
  C      3.521372   -0.045165    0.578377
  N      4.801263   -0.374613   -0.075828
  H      0.779858   -0.591747    0.991061
  H      1.040325    1.123372    0.745152
  H      2.538666    0.599424   -1.235709
  H      2.371980   -1.119858   -0.889234
  H      3.355218   -0.780482    1.375379
  H      3.512332    0.951087    1.054193
  H      5.550685   -0.360023    0.610858
  H      5.028771    0.348980   -0.753564
  H     -2.414672    0.236108    1.525937
  C     -2.202324    2.111365    0.650258
  N     -1.319882   -2.450175   -0.814568
  H     -0.680212   -2.115592   -1.521493
  O     -1.905859    2.738920   -0.366937
  C     -2.814287    2.796717    1.869728
  H     -3.751726    3.270464    1.565713
  H     -3.005872    2.115101    2.702465
  H     -2.135628    3.588015    2.199492
  C     -1.465564   -3.885451   -0.596826
  H     -2.460938   -4.088430   -0.198515
  H     -1.345403   -4.406296   -1.549371
  H     -0.725479   -4.266782    0.116363
  H     -2.210820    0.170550   -1.226407
  H      0.044010    0.684228   -1.739735

 Total Charge           Charge          ....    0
 Multiplicity           Mult            ....    2
 Number of Electrons    NEL             ....  109
 Basis Dimension        Dim             ....  364

ORBITAL ENERGIES
----------------
                 SPIN UP ORBITALS
  NO   OCC          E(Eh)            E(eV)
   0   1.0000     -19.124593      -520.4066
   1   1.0000     -19.100320      -519.7461
   2   1.0000     -14.369917      -391.0253
   3   1.0000     -14.348863      -390.4524
   4   1.0000     -14.310280      -389.4025
   5   1.0000     -10.304307      -280.3944
   6   1.0000     -10.287062      -279.9252
   7   1.0000     -10.242299      -278.7071
   8   1.0000     -10.225073      -278.2384
   9   1.0000     -10.208482      -277.7869
  10   1.0000     -10.203577      -277.6535
  11   1.0000     -10.191400      -277.3221
  12   1.0000     -10.185436      -277.1598
  13   1.0000     -10.184142      -277.1246
  14   1.0000      -1.046750       -28.4835
  15   1.0000      -1.021840       -27.8057
  16   1.0000      -0.931387       -25.3443
  17   1.0000      -0.915785       -24.9198
  18   1.0000      -0.877998       -23.8916
  19   1.0000      -0.802593       -21.8397
  20   1.0000      -0.762654       -20.7529
  21   1.0000      -0.726927       -19.7807
  22   1.0000      -0.710162       -19.3245
  23   1.0000      -0.672023       -18.2867
  24   1.0000      -0.613005       -16.6807
  25   1.0000      -0.594561       -16.1788
  26   1.0000      -0.588401       -16.0112
  27   1.0000      -0.555272       -15.1097
  28   1.0000      -0.534042       -14.5320
  29   1.0000      -0.492938       -13.4135
  30   1.0000      -0.487914       -13.2768
  31   1.0000      -0.475656       -12.9433
  32   1.0000      -0.470045       -12.7906
  33   1.0000      -0.458687       -12.4815
  34   1.0000      -0.452856       -12.3229
  35   1.0000      -0.446946       -12.1620
  36   1.0000      -0.433815       -11.8047
  37   1.0000      -0.429636       -11.6910
  38   1.0000      -0.417893       -11.3714
  39   1.0000      -0.403872       -10.9899
  40   1.0000      -0.400204       -10.8901
  41   1.0000      -0.392402       -10.6778
  42   1.0000      -0.389476       -10.5982
  43   1.0000      -0.381879       -10.3915
  44   1.0000      -0.365958        -9.9582
  45   1.0000      -0.354573        -9.6484
  46   1.0000      -0.351153        -9.5553
  47   1.0000      -0.335580        -9.1316
  48   1.0000      -0.332636        -9.0515
  49   1.0000      -0.281362        -7.6562
  50   1.0000      -0.270232        -7.3534
  51   1.0000      -0.252959        -6.8834
  52   1.0000      -0.247726        -6.7410
  53   1.0000      -0.240452        -6.5430
  54   1.0000      -0.200593        -5.4584
  55   0.0000       0.003761         0.1023
  56   0.0000       0.012513         0.3405
  57   0.0000       0.021188         0.5766
  58   0.0000       0.026308         0.7159
  59   0.0000       0.028858         0.7853

                 SPIN DOWN ORBITALS
  NO   OCC          E(Eh)            E(eV)
   0   1.0000     -19.124270      -520.3978
   1   1.0000     -19.100052      -519.7388
   2   1.0000     -14.369497      -391.0139
   3   1.0000     -14.347825      -390.4242
   4   1.0000     -14.310257      -389.4019
   5   1.0000     -10.303556      -280.3740
   6   1.0000     -10.287059      -279.9251
   7   1.0000     -10.243116      -278.7293
   8   1.0000     -10.225090      -278.2388
   9   1.0000     -10.208447      -277.7860
  10   1.0000     -10.192179      -277.3433
  11   1.0000     -10.190099      -277.2867
  12   1.0000     -10.185350      -277.1575
  13   1.0000     -10.183803      -277.1154
  14   1.0000      -1.045922       -28.4610
  15   1.0000      -1.021259       -27.7899
  16   1.0000      -0.930402       -25.3175
  17   1.0000      -0.913503       -24.8577
  18   1.0000      -0.877888       -23.8886
  19   1.0000      -0.792313       -21.5599
  20   1.0000      -0.761232       -20.7142
  21   1.0000      -0.726145       -19.7594
  22   1.0000      -0.703233       -19.1359
  23   1.0000      -0.670288       -18.2395
  24   1.0000      -0.604048       -16.4370
  25   1.0000      -0.593234       -16.1427
  26   1.0000      -0.586695       -15.9648
  27   1.0000      -0.546859       -14.8808
  28   1.0000      -0.530124       -14.4254
  29   1.0000      -0.490880       -13.3575
  30   1.0000      -0.486825       -13.2472
  31   1.0000      -0.475106       -12.9283
  32   1.0000      -0.467663       -12.7258
  33   1.0000      -0.457843       -12.4585
  34   1.0000      -0.451836       -12.2951
  35   1.0000      -0.445690       -12.1278
  36   1.0000      -0.431386       -11.7386
  37   1.0000      -0.427764       -11.6400
  38   1.0000      -0.412730       -11.2310
  39   1.0000      -0.402997       -10.9661
  40   1.0000      -0.398413       -10.8414
  41   1.0000      -0.390336       -10.6216
  42   1.0000      -0.388721       -10.5776
  43   1.0000      -0.380280       -10.3479
  44   1.0000      -0.362924        -9.8757
  45   1.0000      -0.353686        -9.6243
  46   1.0000      -0.347424        -9.4539
  47   1.0000      -0.334038        -9.0896
  48   1.0000      -0.329947        -8.9783
  49   1.0000      -0.275345        -7.4925
  50   1.0000      -0.269177        -7.3247
  51   1.0000      -0.250941        -6.8284
  52   1.0000      -0.244992        -6.6666
  53   1.0000      -0.239936        -6.5290
  54   0.0000      -0.065647        -1.7863
  55   0.0000       0.004987         0.1357
  56   0.0000       0.013486         0.3670
  57   0.0000       0.022123         0.6020
  58   0.0000       0.026682         0.7261

MULLIKEN ATOMIC CHARGES AND SPIN POPULATIONS
--------------------------------------------
   0 N :   -0.131245    0.028712
   1 C :   -0.114987   -0.048013
   2 C :    0.062661    0.019302
   3 O :   -0.335159    0.008551
   4 C :   -0.137329    0.983816
   5 C :   -0.222668   -0.057442
   6 C :   -0.286559    0.012689
   7 C :   -0.291703    0.001472
   8 N :   -0.456895    0.000585
   9 H :    0.148853    0.013136
  10 H :    0.155734    0.052824
  11 H :    0.144874   -0.000637
  12 H :    0.160929   -0.000504
  13 H :    0.157393    0.000131
  14 H :    0.135551    0.000250
  15 H :    0.211300    0.000294
  16 H :    0.210905    0.000041
  17 H :    0.249997    0.000714
  18 C :    0.177533   -0.002198
  19 N :   -0.088285    0.016224
  20 H :    0.239332    0.002824
  21 O :   -0.318401    0.008404
  22 C :   -0.552962    0.003292
  23 H :    0.185895   -0.000277
  24 H :    0.150155   -0.000025
  25 H :    0.183785    0.000694
  26 C :   -0.443905   -0.001151
  27 H :    0.191862    0.001703
  28 H :    0.150934    0.000068
  29 H :    0.171420    0.000083
  30 H :    0.174934    0.002671
  31 H :    0.116052   -0.048234
Sum of atomic charges         :   -0.0000000

LOEWDIN ATOMIC CHARGES AND SPIN POPULATIONS
-------------------------------------------
   0 N :    0.056954    0.028214
   1 C :   -0.058782    0.014676
   2 C :   -0.090474    0.024986
   3 O :   -0.188073    0.010387
   4 C :   -0.040738    0.797668
   5 C :   -0.081604    0.008226
   6 C :   -0.084574    0.012581
   7 C :   -0.061900    0.001619
   8 N :   -0.095647    0.000647
   9 H :    0.054268    0.010956
  10 H :    0.061602    0.042649
  11 H :    0.043324    0.000098
  12 H :    0.047763   -0.000260
  13 H :    0.038651    0.000142
  14 H :    0.024405    0.000527
  15 H :    0.049430    0.000223
  16 H :    0.051489    0.000014
  17 H :    0.089747    0.001452
  18 C :   -0.102869    0.002377
  19 N :    0.044069    0.013922
  20 H :    0.084159    0.007189
  21 O :   -0.186674    0.007285
  22 C :   -0.043019    0.002746
  23 H :    0.054320   -0.000054
  24 H :    0.033848    0.000006
  25 H :    0.053727    0.000483
  26 C :    0.011506    0.000221
  27 H :    0.048186    0.000926
  28 H :    0.033375    0.000017
  29 H :    0.034299    0.000056
  30 H :    0.073989    0.000280
  31 H :    0.045242    0.009742

  Mayer bond orders larger than 0.100000
B(  0-N ,  1-C ) :   1.0302 B(  0-N , 17-H ) :   0.8877 B(  0-N , 18-C ) :   1.2048
B(  1-C ,  2-C ) :   0.8731 B(  1-C ,  4-C ) :   0.9814 B(  1-C , 21-O ) :   0.1161
B(  1-C , 30-H ) :   0.9582 B(  2-C ,  3-O ) :   1.8362 B(  2-C , 19-N ) :   1.2077
B(  4-C ,  5-C ) :   1.0127 B(  4-C , 31-H ) :   0.9819 B(  5-C ,  6-C ) :   0.9599
B(  5-C ,  9-H ) :   0.9626 B(  5-C , 10-H ) :   0.9427 B(  6-C ,  7-C ) :   0.9635
B(  6-C , 11-H ) :   0.9761 B(  6-C , 12-H ) :   0.9680 B(  7-C ,  8-N ) :   1.0228
B(  7-C , 13-H ) :   0.9590 B(  7-C , 14-H ) :   0.9410 B(  8-N , 15-H ) :   0.9439
B(  8-N , 16-H ) :   0.9469 B( 18-C , 21-O ) :   1.8650 B( 18-C , 22-C ) :   0.8878
B( 19-N , 20-H ) :   0.9174 B( 19-N , 26-C ) :   0.9603 B( 22-C , 23-H ) :   0.9590
B( 22-C , 24-H ) :   0.9763 B( 22-C , 25-H ) :   0.9601 B( 26-C , 27-H ) :   0.9509
B( 26-C , 28-H ) :   0.9668 B( 26-C , 29-H ) :   0.9527

FINAL SINGLE POINT ENERGY      -668.217667309252

DIPOLE MOMENT
-------------
                                X             Y             Z
Electronic contribution:    -11.23536       1.70042      -1.16906
Nuclear contribution   :     11.98288      -2.40357       1.25510
                        -----------------------------------------
Total Dipole Moment    :      0.74752      -0.70316       0.08604
                        -----------------------------------------
Magnitude (a.u.)       :      1.02986
Magnitude (Debye)      :      2.61770

Rotational constants in cm-1:     0.020475     0.013215     0.008907
Rotational constants in MHz :   613.815919   396.187610   267.033479

CHEMICAL SHIELDING SUMMARY (ppm)  --  Orbital contribution
----------------------------------------------------------

  Nucleus  Element    Isotropic     Anisotropy
  -------  -------  ------------   ------------
      0       N          120.534        124.289
      3       O          -46.622        341.074
      8       N          224.215         34.146
      9       H           30.082          4.905
     10       H           29.575          5.973
     11       H           30.443          4.580
     12       H           30.212          4.561
     13       H           29.446          4.555
     14       H           28.921          5.919
     15       H           31.194         14.188
     16       H           31.666         11.554
     17       H           25.127          7.887
     19       N          143.827         98.014
     20       H           26.748          6.995
     30       H           27.163          4.631
     31       H           26.449          4.804

                             ****ORCA TERMINATED NORMALLY****
TOTAL RUN TIME: 0 days 0 hours 8 minutes 10 seconds 548 msec
