                         Program Version 5.0.4 -  RELEASE  -
|  1> ! M062X def2-TZVP OPT FREQ
|  2> %pal nprocs 16 end
|  3> *XYZFile 0 2 opt.xyz
|  4>
|  5>                          ****END OF INPUT****
 Total Charge           Charge          ....    0
 Multiplicity           Mult            ....    2
 Number of Electrons    NEL             ....  109
FINAL SINGLE POINT ENERGY      -668.443020735439
FINAL SINGLE POINT ENERGY      -668.445938466443
FINAL SINGLE POINT ENERGY      -668.446083328720
FINAL SINGLE POINT ENERGY      -668.446151784381
FINAL SINGLE POINT ENERGY      -668.446183219882
FINAL SINGLE POINT ENERGY      -668.446192434773
FINAL SINGLE POINT ENERGY      -668.446167481885
FINAL SINGLE POINT ENERGY      -668.446108371418
FINAL SINGLE POINT ENERGY      -668.445942148698
FINAL SINGLE POINT ENERGY      -668.445916285672
FINAL SINGLE POINT ENERGY      -668.445943586774
FINAL SINGLE POINT ENERGY      -668.445954371917
FINAL SINGLE POINT ENERGY      -668.445930074198
FINAL SINGLE POINT ENERGY      -668.445964146623
FINAL SINGLE POINT ENERGY      -668.445960184241
FINAL SINGLE POINT ENERGY      -668.445970559144
FINAL SINGLE POINT ENERGY      -668.445968496492
FINAL SINGLE POINT ENERGY      -668.445982777716
FINAL SINGLE POINT ENERGY      -668.445985109170
                    ***********************HURRAY********************

CARTESIAN COORDINATES (ANGSTROEM)
---------------------------------
  N     -2.072083    0.815471    0.769256
  C     -1.565058    0.028010   -0.338997
  C     -1.648550   -1.443638    0.099082
  O     -2.133390   -1.778787    1.163727
  C     -0.168291    0.394884   -0.731437
  C      0.952473    0.206071    0.228819
  C      2.273809   -0.120638   -0.464844
  C      3.415644   -0.326360    0.516868
  N      4.644568   -0.659686   -0.197958
  H      0.700688   -0.588093    0.941366
  H      1.078486    1.116507    0.832107
  H      2.529006    0.691208   -1.154423
  H      2.166293   -1.023823   -1.070964
  H      3.172172   -1.164061    1.175295
  H      3.503855    0.564167    1.154688
  H      5.396103   -0.861160    0.449507
  H      4.945200    0.125112   -0.764496
  H     -2.395480    0.292251    1.570491
  C     -2.335336    2.135262    0.616144
  N     -1.150189   -2.327085   -0.787022
  H     -0.661556   -1.967807   -1.590911
  O     -2.068968    2.734011   -0.408898
  C     -2.975315    2.823932    1.799449
  H     -3.904354    3.282771    1.464121
  H     -3.179353    2.149726    2.629055
  H     -2.313181    3.621594    2.133576
  C     -1.123757   -3.744642   -0.491233
  H     -2.108634   -4.067312   -0.158408
  H     -0.850723   -4.289226   -1.391624
  H     -0.406052   -3.970204    0.299372
  H     -2.225472    0.163755   -1.201648
  H     -0.032617    1.051529   -1.579951

 Multiplicity           Mult            ....    2
 Number of Electrons    NEL             ....  109
 Basis Dimension        Dim             ....  542

ORBITAL ENERGIES
----------------
                 SPIN UP ORBITALS
  NO   OCC          E(Eh)            E(eV)
   0   1.0000     -19.607922      -533.5587
   1   1.0000     -19.583450      -532.8928
   2   1.0000     -14.783672      -402.2842
   3   1.0000     -14.765757      -401.7967
   4   1.0000     -14.727185      -400.7471
   5   1.0000     -10.652355      -289.8653
   6   1.0000     -10.636265      -289.4275
   7   1.0000     -10.592243      -288.2296
   8   1.0000     -10.576852      -287.8108
   9   1.0000     -10.559088      -287.3274
  10   1.0000     -10.554838      -287.2117
  11   1.0000     -10.540612      -286.8246
  12   1.0000     -10.536113      -286.7022
  13   1.0000     -10.534253      -286.6516
  14   1.0000      -1.181512       -32.1506
  15   1.0000      -1.156813       -31.4785
  16   1.0000      -1.047043       -28.4915
  17   1.0000      -1.034246       -28.1433
  18   1.0000      -0.992455       -27.0061
  19   1.0000      -0.913635       -24.8613
  20   1.0000      -0.868186       -23.6246
  21   1.0000      -0.827421       -22.5153
  22   1.0000      -0.807919       -21.9846
  23   1.0000      -0.767007       -20.8713
  24   1.0000      -0.704053       -19.1583
  25   1.0000      -0.682613       -18.5749
  26   1.0000      -0.678238       -18.4558
  27   1.0000      -0.641859       -17.4659
  28   1.0000      -0.618710       -16.8360
  29   1.0000      -0.579532       -15.7699
  30   1.0000      -0.569917       -15.5082
  31   1.0000      -0.558157       -15.1882
  32   1.0000      -0.551973       -15.0199
  33   1.0000      -0.539291       -14.6749
  34   1.0000      -0.535127       -14.5615
  35   1.0000      -0.528120       -14.3709
  36   1.0000      -0.510924       -13.9030
  37   1.0000      -0.507258       -13.8032
  38   1.0000      -0.493550       -13.4302
  39   1.0000      -0.478539       -13.0217
  40   1.0000      -0.472604       -12.8602
  41   1.0000      -0.467691       -12.7265
  42   1.0000      -0.460922       -12.5423
  43   1.0000      -0.456507       -12.4222
  44   1.0000      -0.436237       -11.8706
  45   1.0000      -0.428112       -11.6495
  46   1.0000      -0.420724       -11.4485
  47   1.0000      -0.400789       -10.9060
  48   1.0000      -0.398726       -10.8499
  49   1.0000      -0.355841        -9.6829
  50   1.0000      -0.339582        -9.2405
  51   1.0000      -0.329537        -8.9672
  52   1.0000      -0.319463        -8.6930
  53   1.0000      -0.311959        -8.4888
  54   1.0000      -0.260014        -7.0754
  55   0.0000       0.046399         1.2626
  56   0.0000       0.050674         1.3789
  57   0.0000       0.060984         1.6595
  58   0.0000       0.069430         1.8893
  59   0.0000       0.073651         2.0041

                 SPIN DOWN ORBITALS
  NO   OCC          E(Eh)            E(eV)
   0   1.0000     -19.607816      -533.5558
   1   1.0000     -19.583251      -532.8873
   2   1.0000     -14.783420      -402.2773
   3   1.0000     -14.764865      -401.7724
   4   1.0000     -14.727165      -400.7465
   5   1.0000     -10.651976      -289.8550
   6   1.0000     -10.636279      -289.4279
   7   1.0000     -10.592889      -288.2472
   8   1.0000     -10.576857      -287.8109
   9   1.0000     -10.559055      -287.3265
  10   1.0000     -10.548088      -287.0281
  11   1.0000     -10.541228      -286.8414
  12   1.0000     -10.536056      -286.7007
  13   1.0000     -10.533875      -286.6413
  14   1.0000      -1.180934       -32.1348
  15   1.0000      -1.156228       -31.4626
  16   1.0000      -1.046205       -28.4687
  17   1.0000      -1.031368       -28.0649
  18   1.0000      -0.992281       -27.0013
  19   1.0000      -0.901299       -24.5256
  20   1.0000      -0.866356       -23.5748
  21   1.0000      -0.826089       -22.4790
  22   1.0000      -0.800004       -21.7692
  23   1.0000      -0.765106       -20.8196
  24   1.0000      -0.693565       -18.8729
  25   1.0000      -0.681433       -18.5427
  26   1.0000      -0.675935       -18.3931
  27   1.0000      -0.631967       -17.1967
  28   1.0000      -0.612905       -16.6780
  29   1.0000      -0.575772       -15.6675
  30   1.0000      -0.568404       -15.4670
  31   1.0000      -0.556779       -15.1507
  32   1.0000      -0.549762       -14.9598
  33   1.0000      -0.538495       -14.6532
  34   1.0000      -0.533253       -14.5106
  35   1.0000      -0.526461       -14.3257
  36   1.0000      -0.507766       -13.8170
  37   1.0000      -0.504408       -13.7256
  38   1.0000      -0.487670       -13.2702
  39   1.0000      -0.475708       -12.9447
  40   1.0000      -0.472107       -12.8467
  41   1.0000      -0.464581       -12.6419
  42   1.0000      -0.459522       -12.5042
  43   1.0000      -0.454730       -12.3738
  44   1.0000      -0.432717       -11.7748
  45   1.0000      -0.427233       -11.6256
  46   1.0000      -0.415843       -11.3157
  47   1.0000      -0.397695       -10.8218
  48   1.0000      -0.396659       -10.7936
  49   1.0000      -0.350383        -9.5344
  50   1.0000      -0.338411        -9.2086
  51   1.0000      -0.326584        -8.8868
  52   1.0000      -0.317036        -8.6270
  53   1.0000      -0.311074        -8.4648
  54   0.0000      -0.022037        -0.5997
  55   0.0000       0.044638         1.2147
  56   0.0000       0.051891         1.4120
  57   0.0000       0.058757         1.5989
  58   0.0000       0.069348         1.8871

MULLIKEN ATOMIC CHARGES AND SPIN POPULATIONS
--------------------------------------------
   0 N :   -0.375802    0.030007
   1 C :   -0.071911   -0.043669
   2 C :    0.339479    0.001239
   3 O :   -0.406070    0.002368
   4 C :   -0.246448    1.096306
   5 C :   -0.297517   -0.140699
   6 C :   -0.232804    0.024137
   7 C :   -0.149797    0.004837
   8 N :   -0.552064    0.000222
   9 H :    0.166955    0.005143
  10 H :    0.160785    0.049387
  11 H :    0.137051   -0.002622
  12 H :    0.132680   -0.002152
  13 H :    0.129964   -0.000136
  14 H :    0.120651   -0.000475
  15 H :    0.227929    0.000336
  16 H :    0.226977    0.000034
  17 H :    0.266571    0.001393
  18 C :    0.384245   -0.003439
  19 N :   -0.336405    0.016629
  20 H :    0.253717   -0.004190
  21 O :   -0.404470    0.000228
  22 C :   -0.454830    0.001622
  23 H :    0.159461   -0.000135
  24 H :    0.128462    0.000114
  25 H :    0.156054    0.000892
  26 C :   -0.293097   -0.000036
  27 H :    0.162287    0.001219
  28 H :    0.140220    0.000147
  29 H :    0.153676   -0.000178
  30 H :    0.180009   -0.003417
  31 H :    0.194042   -0.035115
Sum of atomic charges         :   -0.0000000

LOEWDIN ATOMIC CHARGES AND SPIN POPULATIONS
-------------------------------------------
   0 N :    0.142176    0.029368
   1 C :   -0.263016    0.060502
   2 C :   -0.437708    0.014031
   3 O :    0.061143    0.003207
   4 C :   -0.100730    0.748424
   5 C :   -0.276686    0.056408
   6 C :   -0.273541    0.015651
   7 C :   -0.347071    0.002590
   8 N :   -0.182147    0.000749
   9 H :    0.150127    0.003599
  10 H :    0.151430    0.030842
  11 H :    0.137937   -0.000165
  12 H :    0.136971    0.000443
  13 H :    0.129940    0.000068
  14 H :    0.115149    0.000268
  15 H :    0.147066    0.000250
  16 H :    0.148561    0.000020
  17 H :    0.193750    0.001460
  18 C :   -0.482504    0.003317
  19 N :    0.101159    0.013755
  20 H :    0.187413    0.005487
  21 O :    0.058009    0.004884
  22 C :   -0.263062    0.002204
  23 H :    0.138708   -0.000027
  24 H :    0.121702    0.000099
  25 H :    0.138013    0.000476
  26 C :   -0.301333    0.001270
  27 H :    0.125738    0.000692
  28 H :    0.118291    0.000065
  29 H :    0.118221    0.000007
  30 H :    0.168978   -0.000170
  31 H :    0.137318    0.000225

  Mayer bond orders larger than 0.100000
B(  0-N ,  1-C ) :   0.9091 B(  0-N , 17-H ) :   0.8768 B(  0-N , 18-C ) :   1.2015
B(  1-C ,  2-C ) :   0.9704 B(  1-C ,  4-C ) :   0.9811 B(  1-C , 30-H ) :   0.9747
B(  2-C ,  3-O ) :   1.9150 B(  2-C , 19-N ) :   1.2369 B(  4-C ,  5-C ) :   0.8796
B(  4-C , 31-H ) :   0.9502 B(  5-C ,  6-C ) :   0.8994 B(  5-C ,  9-H ) :   1.0043
B(  5-C , 10-H ) :   0.9237 B(  6-C ,  7-C ) :   0.9357 B(  6-C , 11-H ) :   0.9725
B(  6-C , 12-H ) :   0.9842 B(  7-C ,  8-N ) :   0.9832 B(  7-C , 13-H ) :   0.9701
B(  7-C , 14-H ) :   0.9873 B(  8-N , 15-H ) :   0.9367 B(  8-N , 16-H ) :   0.9319
B( 18-C , 21-O ) :   1.9418 B( 18-C , 22-C ) :   0.9091 B( 19-N , 20-H ) :   0.9092
B( 19-N , 26-C ) :   0.9197 B( 22-C , 23-H ) :   0.9629 B( 22-C , 24-H ) :   0.9863
B( 22-C , 25-H ) :   0.9574 B( 26-C , 27-H ) :   0.9669 B( 26-C , 28-H ) :   0.9655
B( 26-C , 29-H ) :   0.9720

FINAL SINGLE POINT ENERGY      -668.445995815856

DIPOLE MOMENT
-------------
                                X             Y             Z
Electronic contribution:    -11.07091       2.17986      -1.06846
Nuclear contribution   :     11.78819      -2.82704       1.17882
                        -----------------------------------------
Total Dipole Moment    :      0.71728      -0.64718       0.11036
                        -----------------------------------------
Magnitude (a.u.)       :      0.97237
Magnitude (Debye)      :      2.47157

VIBRATIONAL FREQUENCIES
-----------------------

Scaling factor for frequencies =  1.000000000  (already applied!)

   0:         0.00 cm**-1
   1:         0.00 cm**-1
   2:         0.00 cm**-1
   3:         0.00 cm**-1
   4:         0.00 cm**-1
   5:         0.00 cm**-1
   6:       -43.24 cm**-1 ***imaginary mode***
   7:        -7.80 cm**-1 ***imaginary mode***
   8:        42.35 cm**-1
   9:        49.66 cm**-1
  10:        64.99 cm**-1
  11:        82.53 cm**-1
  12:        95.11 cm**-1
  13:       110.93 cm**-1
  14:       115.63 cm**-1
  15:       122.74 cm**-1
  16:       147.15 cm**-1
  17:       163.89 cm**-1
  18:       211.00 cm**-1
  19:       225.48 cm**-1
  20:       271.59 cm**-1
  21:       290.30 cm**-1
  22:       301.59 cm**-1
  23:       352.73 cm**-1
  24:       374.89 cm**-1
  25:       435.08 cm**-1
  26:       481.52 cm**-1
  27:       483.72 cm**-1
  28:       524.57 cm**-1
  29:       549.30 cm**-1
  30:       586.23 cm**-1
  31:       628.03 cm**-1
  32:       664.58 cm**-1
  33:       724.21 cm**-1
  34:       734.50 cm**-1
  35:       808.63 cm**-1
  36:       837.75 cm**-1
  37:       876.92 cm**-1
  38:       897.20 cm**-1
  39:       945.43 cm**-1
  40:       992.06 cm**-1
  41:      1018.21 cm**-1
  42:      1027.20 cm**-1
  43:      1062.76 cm**-1
  44:      1063.08 cm**-1
  45:      1067.13 cm**-1
  46:      1090.27 cm**-1
  47:      1111.35 cm**-1
  48:      1136.59 cm**-1
  49:      1157.51 cm**-1
  50:      1164.85 cm**-1
  51:      1188.45 cm**-1
  52:      1204.61 cm**-1
  53:      1231.60 cm**-1
  54:      1246.76 cm**-1
  55:      1273.40 cm**-1
  56:      1284.42 cm**-1
  57:      1309.36 cm**-1
  58:      1331.41 cm**-1
  59:      1335.25 cm**-1
  60:      1359.26 cm**-1
  61:      1366.42 cm**-1
  62:      1400.93 cm**-1
  63:      1423.48 cm**-1
  64:      1435.54 cm**-1
  65:      1457.35 cm**-1
  66:      1475.64 cm**-1
  67:      1477.59 cm**-1
  68:      1483.04 cm**-1
  69:      1488.25 cm**-1
  70:      1492.62 cm**-1
  71:      1511.05 cm**-1
  72:      1521.53 cm**-1
  73:      1535.18 cm**-1
  74:      1575.93 cm**-1
  75:      1656.40 cm**-1
  76:      1776.11 cm**-1
  77:      1786.93 cm**-1
  78:      3002.59 cm**-1
  79:      3006.21 cm**-1
  80:      3052.90 cm**-1
  81:      3064.84 cm**-1
  82:      3067.25 cm**-1
  83:      3077.55 cm**-1
  84:      3088.79 cm**-1
  85:      3089.58 cm**-1
  86:      3112.20 cm**-1
  87:      3149.16 cm**-1
  88:      3173.39 cm**-1
  89:      3182.01 cm**-1
  90:      3186.27 cm**-1
  91:      3217.00 cm**-1
  92:      3525.35 cm**-1
  93:      3608.84 cm**-1
  94:      3609.36 cm**-1
  95:      3645.27 cm**-1

IR SPECTRUM
-----------

 Mode   freq       eps      Int      T**2         TX        TY        TZ
       cm**-1   L/(mol*cm) km/mol    a.u.
----------------------------------------------------------------------------
  8:     42.35   0.000207    1.05  0.001529  (-0.015459  0.010457 -0.034362)
  9:     49.66   0.000016    0.08  0.000100  (-0.006251 -0.003879  0.006758)
 10:     64.99   0.002011   10.16  0.009655  ( 0.091654  0.011661  0.033451)
 11:     82.53   0.000169    0.86  0.000640  (-0.010100  0.020610 -0.010638)
 12:     95.11   0.001124    5.68  0.003689  (-0.049136 -0.016840 -0.031476)
 13:    110.93   0.001003    5.07  0.002821  (-0.015581 -0.050353 -0.006535)
 14:    115.63   0.000408    2.06  0.001101  (-0.002220 -0.030298 -0.013344)
 15:    122.74   0.000484    2.45  0.001232  (-0.032839  0.004113  0.011680)
 16:    147.15   0.001880    9.50  0.003987  (-0.032951  0.053111 -0.008976)
 17:    163.89   0.000632    3.19  0.001203  ( 0.017925  0.022462  0.019418)
 18:    211.00   0.001235    6.24  0.001826  ( 0.027851 -0.001248  0.032390)
 19:    225.48   0.001643    8.30  0.002274  (-0.020802  0.034816  0.025075)
 20:    271.59   0.007191   36.34  0.008263  (-0.040044  0.058425 -0.056970)
 21:    290.30   0.000484    2.45  0.000521  (-0.003870  0.022443 -0.001398)
 22:    301.59   0.000313    1.58  0.000324  (-0.010440 -0.003699 -0.014184)
 23:    352.73   0.000090    0.46  0.000080  (-0.003324 -0.004457  0.006993)
 24:    374.89   0.004768   24.10  0.003969  (-0.000933  0.057698  0.025280)
 25:    435.08   0.007263   36.70  0.005209  ( 0.068630 -0.010108  0.019926)
 26:    481.52   0.006686   33.79  0.004333  ( 0.044529  0.012473  0.046848)
 27:    483.72   0.006880   34.77  0.004438  (-0.047244 -0.024065 -0.040339)
 28:    524.57   0.004361   22.04  0.002594  ( 0.000134  0.025125  0.044306)
 29:    549.30   0.014600   73.78  0.008294  ( 0.082895 -0.006944  0.037077)
 30:    586.23   0.004912   24.82  0.002615  (-0.002536 -0.044625 -0.024837)
 31:    628.03   0.002093   10.58  0.001040  ( 0.018046 -0.026676  0.001593)
 32:    664.58   0.000998    5.04  0.000469  (-0.017717  0.003847 -0.011836)
 33:    724.21   0.001742    8.80  0.000751  ( 0.012432  0.020540  0.013203)
 34:    734.50   0.000392    1.98  0.000166  (-0.011238 -0.005989 -0.002078)
 35:    808.63   0.002912   14.72  0.001124  (-0.022707  0.016368  0.018450)
 36:    837.75   0.015933   80.52  0.005935  (-0.025465  0.051971  0.050848)
 37:    876.92   0.009155   46.26  0.003258  ( 0.019623 -0.039083 -0.036678)
 38:    897.20   0.000515    2.60  0.000179  (-0.006051 -0.007043  0.009647)
 39:    945.43   0.000638    3.22  0.000210  ( 0.003524  0.007338 -0.012009)
 40:    992.06   0.000702    3.55  0.000221  (-0.008730  0.005060  0.010905)
 41:   1018.21   0.000807    4.08  0.000247  (-0.002592  0.014044 -0.006579)
 42:   1027.20   0.003243   16.39  0.000985  ( 0.018715 -0.023964 -0.007785)
 43:   1062.76   0.000639    3.23  0.000188  ( 0.005064 -0.005723 -0.011366)
 44:   1063.08   0.002058   10.40  0.000604  ( 0.024383 -0.000682  0.003036)
 45:   1067.13   0.001126    5.69  0.000329  ( 0.007975 -0.009575 -0.013193)
 46:   1090.27   0.000232    1.17  0.000066  ( 0.003910 -0.006713 -0.002445)
 47:   1111.35   0.002238   11.31  0.000628  ( 0.023669 -0.004545 -0.006888)
 48:   1136.59   0.001323    6.69  0.000363  ( 0.016074  0.004143  0.009369)
 49:   1157.51   0.000833    4.21  0.000224  (-0.005621  0.011964  0.007052)
 50:   1164.85   0.000547    2.76  0.000146  (-0.003150  0.007570  0.008899)
 51:   1188.45   0.000413    2.09  0.000109  (-0.009189 -0.004862 -0.000683)
 52:   1204.61   0.001117    5.65  0.000289  ( 0.013429 -0.008858 -0.005531)
 53:   1231.60   0.000348    1.76  0.000088  ( 0.003166  0.007466  0.004745)
 54:   1246.76   0.003199   16.17  0.000801  ( 0.012325 -0.025294 -0.003016)
 55:   1273.40   0.005735   28.98  0.001406  (-0.003244 -0.037345  0.000602)
 56:   1284.42   0.000704    3.56  0.000171  ( 0.010331 -0.004431 -0.006687)
 57:   1309.36   0.000124    0.63  0.000030  ( 0.005258  0.000283 -0.001375)
 58:   1331.41   0.004539   22.94  0.001064  (-0.018375  0.026605  0.004286)
 59:   1335.25   0.008794   44.44  0.002055  (-0.012013  0.043693  0.001349)
 60:   1359.26   0.000424    2.14  0.000097  ( 0.007906 -0.005553 -0.002018)
 61:   1366.42   0.001409    7.12  0.000322  (-0.010627  0.014260  0.002330)
 62:   1400.93   0.003837   19.39  0.000855  ( 0.012388 -0.022323 -0.014247)
 63:   1423.48   0.000918    4.64  0.000201  ( 0.014025 -0.002045  0.000649)
 64:   1435.54   0.002456   12.41  0.000534  (-0.021593  0.000600  0.008209)
 65:   1457.35   0.004550   22.99  0.000974  ( 0.014978 -0.020977 -0.017603)
 66:   1475.64   0.000197    1.00  0.000042  (-0.000253 -0.000773 -0.006411)
 67:   1477.59   0.001978    9.99  0.000418  (-0.017058  0.007544 -0.008353)
 68:   1483.04   0.014099   71.25  0.002967  (-0.002578  0.054400 -0.000838)
 69:   1488.25   0.002952   14.92  0.000619  (-0.014442 -0.014528 -0.014116)
 70:   1492.62   0.000975    4.93  0.000204  ( 0.001058  0.004176  0.013610)
 71:   1511.05   0.001732    8.76  0.000358  ( 0.002339 -0.018458  0.003407)
 72:   1521.53   0.000615    3.11  0.000126  ( 0.006426 -0.002355  0.008900)
 73:   1535.18   0.095215  481.18  0.019355  (-0.049182  0.122701  0.043363)
 74:   1575.93   0.035141  177.59  0.006958  ( 0.013750 -0.074746 -0.034387)
 75:   1656.40   0.007310   36.94  0.001377  ( 0.032601  0.017592 -0.002194)
 76:   1776.11   0.085324  431.19  0.014991  ( 0.032044  0.057649 -0.103156)
 77:   1786.93   0.019634   99.22  0.003429  ( 0.036123 -0.037337 -0.027019)
 78:   3002.59   0.002674   13.52  0.000278  (-0.006545  0.009856  0.011747)
 79:   3006.21   0.009726   49.15  0.001010  (-0.003941  0.017905  0.025953)
 80:   3052.90   0.002105   10.64  0.000215  (-0.003155  0.002698  0.014068)
 81:   3064.84   0.003004   15.18  0.000306  (-0.005070 -0.008278  0.014547)
 82:   3067.25   0.002840   14.35  0.000289  (-0.005603 -0.014005 -0.007839)
 83:   3077.55   0.005817   29.40  0.000590  (-0.005960  0.023437 -0.002250)
 84:   3088.79   0.002064   10.43  0.000209  (-0.002371 -0.005072  0.013312)
 85:   3089.58   0.000645    3.26  0.000065  ( 0.003597 -0.000886 -0.007168)
 86:   3112.20   0.007756   39.20  0.000778  ( 0.008340  0.026466 -0.002773)
 87:   3149.16   0.002159   10.91  0.000214  ( 0.011146  0.004890  0.008110)
 88:   3173.39   0.000254    1.28  0.000025  (-0.004622 -0.000845 -0.001698)
 89:   3182.01   0.001418    7.16  0.000139  (-0.001922 -0.007662  0.008754)
 90:   3186.27   0.001167    5.90  0.000114  ( 0.004568 -0.002977 -0.009197)
 91:   3217.00   0.000576    2.91  0.000056  ( 0.002658  0.003306 -0.006157)
 92:   3525.35   0.000112    0.56  0.000010  ( 0.002993  0.000882  0.000386)
 93:   3608.84   0.000886    4.48  0.000077  ( 0.002077 -0.005275  0.006669)
 94:   3609.36   0.020931  105.78  0.001810  ( 0.006026  0.036896 -0.020300)
 95:   3645.27   0.009508   48.05  0.000814  ( 0.015727  0.005679 -0.023117)

--------------------------
THERMOCHEMISTRY AT 298.15K
--------------------------

Temperature         ... 298.15 K
Pressure            ... 1.00 atm
Total Mass          ... 200.26 AMU

Throughout the following assumptions are being made:
  (1) The electronic state is orbitally nondegenerate
      but the spin degeneracy is treated
  (2) There are no thermally accessible electronically excited states
  (3) Hindered rotations indicated by low frequency modes are not
      treated as such but are treated as vibrations and this may
      cause some error
  (4) All equations used are the standard statistical mechanics
      equations for an ideal gas
  (5) All vibrations are strictly harmonic

freq.      42.35  E(vib)   ...       0.53
freq.      49.66  E(vib)   ...       0.52
freq.      64.99  E(vib)   ...       0.50
freq.      82.53  E(vib)   ...       0.48
freq.      95.11  E(vib)   ...       0.47
freq.     110.93  E(vib)   ...       0.45
freq.     115.63  E(vib)   ...       0.44
freq.     122.74  E(vib)   ...       0.43
freq.     147.15  E(vib)   ...       0.41
freq.     163.89  E(vib)   ...       0.39
freq.     211.00  E(vib)   ...       0.34
freq.     225.48  E(vib)   ...       0.33
freq.     271.59  E(vib)   ...       0.29
freq.     290.30  E(vib)   ...       0.27
freq.     301.59  E(vib)   ...       0.26
freq.     352.73  E(vib)   ...       0.22
freq.     374.89  E(vib)   ...       0.21
freq.     435.08  E(vib)   ...       0.17
freq.     481.52  E(vib)   ...       0.15
freq.     483.72  E(vib)   ...       0.15
freq.     524.57  E(vib)   ...       0.13
freq.     549.30  E(vib)   ...       0.12
freq.     586.23  E(vib)   ...       0.11
freq.     628.03  E(vib)   ...       0.09
freq.     664.58  E(vib)   ...       0.08
freq.     724.21  E(vib)   ...       0.06
freq.     734.50  E(vib)   ...       0.06
freq.     808.63  E(vib)   ...       0.05
freq.     837.75  E(vib)   ...       0.04
freq.     876.92  E(vib)   ...       0.04
freq.     897.20  E(vib)   ...       0.03
freq.     945.43  E(vib)   ...       0.03
freq.     992.06  E(vib)   ...       0.02
freq.    1018.21  E(vib)   ...       0.02
freq.    1027.20  E(vib)   ...       0.02
freq.    1062.76  E(vib)   ...       0.02
freq.    1063.08  E(vib)   ...       0.02
freq.    1067.13  E(vib)   ...       0.02
freq.    1090.27  E(vib)   ...       0.02
freq.    1111.35  E(vib)   ...       0.01
freq.    1136.59  E(vib)   ...       0.01
freq.    1157.51  E(vib)   ...       0.01
freq.    1164.85  E(vib)   ...       0.01
freq.    1188.45  E(vib)   ...       0.01
freq.    1204.61  E(vib)   ...       0.01
freq.    1231.60  E(vib)   ...       0.01
freq.    1246.76  E(vib)   ...       0.01
freq.    1273.40  E(vib)   ...       0.01
freq.    1284.42  E(vib)   ...       0.01
freq.    1309.36  E(vib)   ...       0.01
freq.    1331.41  E(vib)   ...       0.01
freq.    1335.25  E(vib)   ...       0.01
freq.    1359.26  E(vib)   ...       0.01
freq.    1366.42  E(vib)   ...       0.01
freq.    1400.93  E(vib)   ...       0.00
freq.    1423.48  E(vib)   ...       0.00
freq.    1435.54  E(vib)   ...       0.00
freq.    1457.35  E(vib)   ...       0.00
freq.    1475.64  E(vib)   ...       0.00
freq.    1477.59  E(vib)   ...       0.00
freq.    1483.04  E(vib)   ...       0.00
freq.    1488.25  E(vib)   ...       0.00
freq.    1492.62  E(vib)   ...       0.00
freq.    1511.05  E(vib)   ...       0.00
freq.    1521.53  E(vib)   ...       0.00
freq.    1535.18  E(vib)   ...       0.00
freq.    1575.93  E(vib)   ...       0.00
freq.    1656.40  E(vib)   ...       0.00
freq.    1776.11  E(vib)   ...       0.00
freq.    1786.93  E(vib)   ...       0.00
freq.    3002.59  E(vib)   ...       0.00
freq.    3006.21  E(vib)   ...       0.00
freq.    3052.90  E(vib)   ...       0.00
freq.    3064.84  E(vib)   ...       0.00
freq.    3067.25  E(vib)   ...       0.00
freq.    3077.55  E(vib)   ...       0.00
freq.    3088.79  E(vib)   ...       0.00
freq.    3089.58  E(vib)   ...       0.00
freq.    3112.20  E(vib)   ...       0.00
freq.    3149.16  E(vib)   ...       0.00
freq.    3173.39  E(vib)   ...       0.00
freq.    3182.01  E(vib)   ...       0.00
freq.    3186.27  E(vib)   ...       0.00
freq.    3217.00  E(vib)   ...       0.00
freq.    3525.35  E(vib)   ...       0.00
freq.    3608.84  E(vib)   ...       0.00
freq.    3609.36  E(vib)   ...       0.00
freq.    3645.27  E(vib)   ...       0.00

------------
INNER ENERGY
------------

The inner energy is: U= E(el) + E(ZPE) + E(vib) + E(rot) + E(trans)
    E(el)   - is the total energy from the electronic structure calculation
              = E(kin-el) + E(nuc-el) + E(el-el) + E(nuc-nuc)
    E(ZPE)  - the the zero temperature vibrational energy from the frequency calculation
    E(vib)  - the the finite temperature correction to E(ZPE) due to population
              of excited vibrational states
    E(rot)  - is the rotational thermal energy
    E(trans)- is the translational thermal energy

Summary of contributions to the inner energy U:
Electronic energy                ...   -668.44599582 Eh
Zero point energy                ...      0.27697568 Eh     173.80 kcal/mol
Thermal vibrational correction   ...      0.01305504 Eh       8.19 kcal/mol
Thermal rotational correction    ...      0.00141627 Eh       0.89 kcal/mol
Thermal translational correction ...      0.00141627 Eh       0.89 kcal/mol
-----------------------------------------------------------------------
Total thermal energy                   -668.15313255 Eh

Summary of corrections to the electronic energy:
(perhaps to be used in another calculation)
Total thermal correction                  0.01588758 Eh       9.97 kcal/mol
Non-thermal (ZPE) correction              0.27697568 Eh     173.80 kcal/mol
-----------------------------------------------------------------------
Total correction                          0.29286326 Eh     183.77 kcal/mol

--------
ENTHALPY
--------

The enthalpy is H = U + kB*T
                kB is Boltzmann's constant
Total free energy                 ...   -668.15313255 Eh
Thermal Enthalpy correction       ...      0.00094421 Eh       0.59 kcal/mol
-----------------------------------------------------------------------
Total Enthalpy                    ...   -668.15218834 Eh

Note: Only C1 symmetry has been detected, increase convergence thresholds
      if your molecule has a higher symmetry. Symmetry factor of 1.0 is
      used for the rotational entropy correction.

Note: Rotational entropy computed according to Herzberg
Infrared and Raman Spectra, Chapter V,1, Van Nostrand Reinhold, 1945
Point Group:  C1, Symmetry Number:   1
Rotational constants in cm-1:     0.022879     0.013094     0.009299

Vibrational entropy computed according to the QRRHO of S. Grimme

                             ****ORCA TERMINATED NORMALLY****
TOTAL RUN TIME: 0 days 0 hours 32 minutes 23 seconds 190 msec
