                         Program Version 5.0.4 -  RELEASE  -
|  1> ! B3LYP EPR-II OPT
|  2> %pal nprocs 16 end
|  3> *XYZFile 0 2 model.xyz
|  4>
|  5>                          ****END OF INPUT****
 Total Charge           Charge          ....    0
 Multiplicity           Mult            ....    2
 Number of Electrons    NEL             ....  109
FINAL SINGLE POINT ENERGY      -668.216669715155
FINAL SINGLE POINT ENERGY      -668.218068896683
FINAL SINGLE POINT ENERGY      -668.218177340575
FINAL SINGLE POINT ENERGY      -668.218224173547
FINAL SINGLE POINT ENERGY      -668.218245839444
FINAL SINGLE POINT ENERGY      -668.218260362492
FINAL SINGLE POINT ENERGY      -668.218272576745
FINAL SINGLE POINT ENERGY      -668.218277190823
FINAL SINGLE POINT ENERGY      -668.218281236181
                    ***********************HURRAY********************

CARTESIAN COORDINATES (ANGSTROEM)
---------------------------------
  N     -1.990716    0.765157    0.772090
  C     -1.560882   -0.045108   -0.367129
  C     -1.829908   -1.525831    0.041578
  O     -2.490392   -1.813845    1.041193
  C     -0.130950    0.202782   -0.780680
  C      0.991809    0.156449    0.213895
  C      2.365163   -0.125579   -0.427623
  C      3.521372   -0.045165    0.578377
  N      4.801263   -0.374613   -0.075828
  H      0.779858   -0.591747    0.991061
  H      1.040325    1.123372    0.745152
  H      2.538666    0.599424   -1.235709
  H      2.371980   -1.119858   -0.889234
  H      3.355218   -0.780482    1.375379
  H      3.512332    0.951087    1.054193
  H      5.550685   -0.360023    0.610858
  H      5.028771    0.348980   -0.753564
  H     -2.414672    0.236108    1.525937
  C     -2.202324    2.111365    0.650258
  N     -1.319882   -2.450175   -0.814568
  H     -0.680212   -2.115592   -1.521493
  O     -1.905859    2.738920   -0.366937
  C     -2.814287    2.796717    1.869728
  H     -3.751726    3.270464    1.565713
  H     -3.005872    2.115101    2.702465
  H     -2.135628    3.588015    2.199492
  C     -1.465564   -3.885451   -0.596826
  H     -2.460938   -4.088430   -0.198515
  H     -1.345403   -4.406296   -1.549371
  H     -0.725479   -4.266782    0.116363
  H     -2.210820    0.170550   -1.226407
  H      0.044010    0.684228   -1.739735

 Multiplicity           Mult            ....    2
 Number of Electrons    NEL             ....  109
 Basis Dimension        Dim             ....  364

ORBITAL ENERGIES
----------------
                 SPIN UP ORBITALS
  NO   OCC          E(Eh)            E(eV)
   0   1.0000     -19.124658      -520.4084
   1   1.0000     -19.100425      -519.7490
   2   1.0000     -14.369805      -391.0223
   3   1.0000     -14.348696      -390.4479
   4   1.0000     -14.310184      -389.3999
   5   1.0000     -10.304212      -280.3919
   6   1.0000     -10.286972      -279.9227
   7   1.0000     -10.242213      -278.7048
   8   1.0000     -10.225021      -278.2370
   9   1.0000     -10.208438      -277.7857
  10   1.0000     -10.203472      -277.6506
  11   1.0000     -10.191326      -277.3201
  12   1.0000     -10.185358      -277.1577
  13   1.0000     -10.184097      -277.1234
  14   1.0000      -1.046783       -28.4844
  15   1.0000      -1.021885       -27.8069
  16   1.0000      -0.931363       -25.3437
  17   1.0000      -0.915753       -24.9189
  18   1.0000      -0.877987       -23.8913
  19   1.0000      -0.802568       -21.8390
  20   1.0000      -0.762625       -20.7521
  21   1.0000      -0.726901       -19.7800
  22   1.0000      -0.710142       -19.3239
  23   1.0000      -0.671997       -18.2860
  24   1.0000      -0.612980       -16.6800
  25   1.0000      -0.594511       -16.1775
  26   1.0000      -0.588387       -16.0108
  27   1.0000      -0.555235       -15.1087
  28   1.0000      -0.533991       -14.5306
  29   1.0000      -0.492917       -13.4130
  30   1.0000      -0.487895       -13.2763
  31   1.0000      -0.475634       -12.9427
  32   1.0000      -0.470040       -12.7904
  33   1.0000      -0.458679       -12.4813
  34   1.0000      -0.452848       -12.3226
  35   1.0000      -0.446930       -12.1616
  36   1.0000      -0.433797       -11.8042
  37   1.0000      -0.429625       -11.6907
  38   1.0000      -0.417880       -11.3711
  39   1.0000      -0.403858       -10.9895
  40   1.0000      -0.400217       -10.8905
  41   1.0000      -0.392392       -10.6775
  42   1.0000      -0.389487       -10.5985
  43   1.0000      -0.381883       -10.3916
  44   1.0000      -0.365949        -9.9580
  45   1.0000      -0.354578        -9.6486
  46   1.0000      -0.351144        -9.5551
  47   1.0000      -0.335573        -9.1314
  48   1.0000      -0.332636        -9.0515
  49   1.0000      -0.281393        -7.6571
  50   1.0000      -0.270274        -7.3545
  51   1.0000      -0.252995        -6.8843
  52   1.0000      -0.247771        -6.7422
  53   1.0000      -0.240489        -6.5440
  54   1.0000      -0.200594        -5.4584
  55   0.0000       0.003838         0.1044
  56   0.0000       0.012749         0.3469
  57   0.0000       0.021520         0.5856
  58   0.0000       0.026552         0.7225
  59   0.0000       0.028987         0.7888

                 SPIN DOWN ORBITALS
  NO   OCC          E(Eh)            E(eV)
   0   1.0000     -19.124342      -520.3998
   1   1.0000     -19.100163      -519.7419
   2   1.0000     -14.369384      -391.0108
   3   1.0000     -14.347656      -390.4196
   4   1.0000     -14.310161      -389.3993
   5   1.0000     -10.303458      -280.3713
   6   1.0000     -10.286969      -279.9226
   7   1.0000     -10.243039      -278.7273
   8   1.0000     -10.225037      -278.2374
   9   1.0000     -10.208404      -277.7848
  10   1.0000     -10.192116      -277.3416
  11   1.0000     -10.189973      -277.2833
  12   1.0000     -10.185272      -277.1553
  13   1.0000     -10.183756      -277.1141
  14   1.0000      -1.045963       -28.4621
  15   1.0000      -1.021309       -27.7912
  16   1.0000      -0.930378       -25.3169
  17   1.0000      -0.913471       -24.8568
  18   1.0000      -0.877877       -23.8883
  19   1.0000      -0.792289       -21.5593
  20   1.0000      -0.761207       -20.7135
  21   1.0000      -0.726118       -19.7587
  22   1.0000      -0.703208       -19.1353
  23   1.0000      -0.670268       -18.2389
  24   1.0000      -0.604018       -16.4362
  25   1.0000      -0.593185       -16.1414
  26   1.0000      -0.586678       -15.9643
  27   1.0000      -0.546824       -14.8798
  28   1.0000      -0.530073       -14.4240
  29   1.0000      -0.490858       -13.3569
  30   1.0000      -0.486807       -13.2467
  31   1.0000      -0.475086       -12.9277
  32   1.0000      -0.467660       -12.7257
  33   1.0000      -0.457839       -12.4584
  34   1.0000      -0.451829       -12.2949
  35   1.0000      -0.445673       -12.1274
  36   1.0000      -0.431369       -11.7382
  37   1.0000      -0.427754       -11.6398
  38   1.0000      -0.412719       -11.2307
  39   1.0000      -0.402988       -10.9659
  40   1.0000      -0.398429       -10.8418
  41   1.0000      -0.390321       -10.6212
  42   1.0000      -0.388737       -10.5781
  43   1.0000      -0.380289       -10.3482
  44   1.0000      -0.362917        -9.8755
  45   1.0000      -0.353694        -9.6245
  46   1.0000      -0.347417        -9.4537
  47   1.0000      -0.334032        -9.0895
  48   1.0000      -0.329948        -8.9783
  49   1.0000      -0.275392        -7.4938
  50   1.0000      -0.269226        -7.3260
  51   1.0000      -0.250977        -6.8294
  52   1.0000      -0.245046        -6.6681
  53   1.0000      -0.239974        -6.5300
  54   0.0000      -0.065617        -1.7855
  55   0.0000       0.005088         0.1385
  56   0.0000       0.013706         0.3730
  57   0.0000       0.022461         0.6112
  58   0.0000       0.026946         0.7332

MULLIKEN ATOMIC CHARGES AND SPIN POPULATIONS
--------------------------------------------
   0 N :   -0.130545    0.028759
   1 C :   -0.114492   -0.048241
   2 C :    0.063269    0.019440
   3 O :   -0.335352    0.008440
   4 C :   -0.136179    0.984181
   5 C :   -0.221737   -0.057668
   6 C :   -0.285421    0.012769
   7 C :   -0.290645    0.001458
   8 N :   -0.456168    0.000583
   9 H :    0.148368    0.013198
  10 H :    0.155188    0.052900
  11 H :    0.144400   -0.000649
  12 H :    0.160383   -0.000517
  13 H :    0.156989    0.000133
  14 H :    0.135023    0.000251
  15 H :    0.210826    0.000295
  16 H :    0.210479    0.000041
  17 H :    0.249507    0.000707
  18 C :    0.178109   -0.002183
  19 N :   -0.087870    0.016188
  20 H :    0.238890    0.002888
  21 O :   -0.319125    0.008336
  22 C :   -0.551747    0.003286
  23 H :    0.185557   -0.000276
  24 H :    0.149662   -0.000023
  25 H :    0.183392    0.000694
  26 C :   -0.443125   -0.001149
  27 H :    0.191500    0.001705
  28 H :    0.150569    0.000068
  29 H :    0.171062    0.000083
  30 H :    0.174015    0.002731
  31 H :    0.115220   -0.048427
Sum of atomic charges         :    0.0000000

LOEWDIN ATOMIC CHARGES AND SPIN POPULATIONS
-------------------------------------------
   0 N :    0.057208    0.028241
   1 C :   -0.058747    0.014570
   2 C :   -0.090247    0.025053
   3 O :   -0.188265    0.010291
   4 C :   -0.040607    0.797882
   5 C :   -0.081515    0.008106
   6 C :   -0.084491    0.012618
   7 C :   -0.061875    0.001612
   8 N :   -0.095475    0.000646
   9 H :    0.054216    0.010981
  10 H :    0.061546    0.042670
  11 H :    0.043286    0.000093
  12 H :    0.047719   -0.000265
  13 H :    0.038619    0.000143
  14 H :    0.024354    0.000527
  15 H :    0.049365    0.000223
  16 H :    0.051430    0.000014
  17 H :    0.089676    0.001450
  18 C :   -0.102661    0.002394
  19 N :    0.044208    0.013936
  20 H :    0.084087    0.007206
  21 O :   -0.186993    0.007225
  22 C :   -0.042869    0.002744
  23 H :    0.054265   -0.000053
  24 H :    0.033799    0.000007
  25 H :    0.053670    0.000483
  26 C :    0.011505    0.000224
  27 H :    0.048143    0.000926
  28 H :    0.033333    0.000018
  29 H :    0.034248    0.000056
  30 H :    0.073902    0.000305
  31 H :    0.045169    0.009678

  Mayer bond orders larger than 0.100000
B(  0-N ,  1-C ) :   1.0305 B(  0-N , 17-H ) :   0.8878 B(  0-N , 18-C ) :   1.2048
B(  1-C ,  2-C ) :   0.8732 B(  1-C ,  4-C ) :   0.9814 B(  1-C , 21-O ) :   0.1160
B(  1-C , 30-H ) :   0.9584 B(  2-C ,  3-O ) :   1.8361 B(  2-C , 19-N ) :   1.2076
B(  4-C ,  5-C ) :   1.0127 B(  4-C , 31-H ) :   0.9821 B(  5-C ,  6-C ) :   0.9603
B(  5-C ,  9-H ) :   0.9625 B(  5-C , 10-H ) :   0.9429 B(  6-C ,  7-C ) :   0.9639
B(  6-C , 11-H ) :   0.9761 B(  6-C , 12-H ) :   0.9681 B(  7-C ,  8-N ) :   1.0229
B(  7-C , 13-H ) :   0.9590 B(  7-C , 14-H ) :   0.9410 B(  8-N , 15-H ) :   0.9440
B(  8-N , 16-H ) :   0.9470 B( 18-C , 21-O ) :   1.8646 B( 18-C , 22-C ) :   0.8882
B( 19-N , 20-H ) :   0.9174 B( 19-N , 26-C ) :   0.9608 B( 22-C , 23-H ) :   0.9592
B( 22-C , 24-H ) :   0.9762 B( 22-C , 25-H ) :   0.9603 B( 26-C , 27-H ) :   0.9509
B( 26-C , 28-H ) :   0.9668 B( 26-C , 29-H ) :   0.9529

FINAL SINGLE POINT ENERGY      -668.218283525464

DIPOLE MOMENT
-------------
                                X             Y             Z
Electronic contribution:    -11.23524       1.70040      -1.16878
Nuclear contribution   :     11.98288      -2.40357       1.25510
                        -----------------------------------------
Total Dipole Moment    :      0.74764      -0.70317       0.08632
                        -----------------------------------------
Magnitude (a.u.)       :      1.02998
Magnitude (Debye)      :      2.61801

Rotational constants in cm-1:     0.020475     0.013215     0.008907
Rotational constants in MHz :   613.815919   396.187610   267.033479

                             ****ORCA TERMINATED NORMALLY****
TOTAL RUN TIME: 0 days 0 hours 5 minutes 30 seconds 750 msec
