                         Program Version 5.0.4 -  RELEASE  -
|  1> ! B3LYP EPR-II AUTOAUX
|  2> %pal nprocs 16 end
|  3> *XYZFile 0 2 opt.xyz
|  4> %EPRNMR
|  5>         GTENSOR   TRUE
|  6>         NUCLEI    = 1,9,10,11,12,13,14,15,16,29,30,31,32 {SHIFT, AISO, ADIP, AORB}
|  7>         ORI       GIAO
|  8> END
|  9>
| 10>                          ****END OF INPUT****

CARTESIAN COORDINATES (ANGSTROEM)
---------------------------------
  N     -1.775606    0.710626    0.721610
  C     -1.501247   -0.164784   -0.403937
  C     -1.643328   -1.612529    0.105525
  O     -1.606619   -1.887255    1.307623
  C     -0.100491    0.081293   -1.030473
  C      1.057161   -0.186297   -0.113734
  C      2.457603    0.153953   -0.531047
  C      3.459883    0.164276    0.634630
  N      4.827007    0.407049    0.136695
  H      2.468021    1.134075   -1.033840
  H      2.827442   -0.564632   -1.283790
  H      3.448665   -0.819955    1.118027
  H      3.123753    0.897667    1.386638
  H      5.479647    0.398553    0.916215
  H      4.878086    1.343287   -0.258307
  H     -1.745618    0.273095    1.633200
  C     -2.156619    2.011599    0.558108
  N     -1.785011   -2.562577   -0.859268
  H     -1.817916   -2.274693   -1.824389
  O     -2.255790    2.535063   -0.553724
  C     -2.450462    2.783469    1.840696
  H     -1.770724    3.638401    1.894438
  H     -3.469788    3.174515    1.783252
  H     -2.343819    2.180815    2.746534
  C     -1.869930   -3.984736   -0.536561
  H     -2.720701   -4.180470    0.122022
  H     -1.996520   -4.547374   -1.463272
  H     -0.961338   -4.324385   -0.030712
  H     -2.250282    0.028568   -1.180868
  H     -0.018390   -0.533702   -1.945852
  H     -0.084071    1.121985   -1.380250
  H      0.906306   -0.807998    0.766890

 Total Charge           Charge          ....    0
 Multiplicity           Mult            ....    2
 Number of Electrons    NEL             ....  109
 Basis Dimension        Dim             ....  364

ORBITAL ENERGIES
----------------
                 SPIN UP ORBITALS
  NO   OCC          E(Eh)            E(eV)
   0   1.0000     -19.122490      -520.3494
   1   1.0000     -19.098733      -519.7030
   2   1.0000     -14.372543      -391.0968
   3   1.0000     -14.349599      -390.4724
   4   1.0000     -14.307545      -389.3281
   5   1.0000     -10.302717      -280.3512
   6   1.0000     -10.287346      -279.9329
   7   1.0000     -10.240549      -278.6595
   8   1.0000     -10.227057      -278.2924
   9   1.0000     -10.205454      -277.7045
  10   1.0000     -10.195595      -277.4363
  11   1.0000     -10.191232      -277.3175
  12   1.0000     -10.185105      -277.1508
  13   1.0000     -10.183367      -277.1035
  14   1.0000      -1.045345       -28.4453
  15   1.0000      -1.021040       -27.7839
  16   1.0000      -0.931366       -25.3438
  17   1.0000      -0.916613       -24.9423
  18   1.0000      -0.875249       -23.8167
  19   1.0000      -0.800485       -21.7823
  20   1.0000      -0.760464       -20.6933
  21   1.0000      -0.727126       -19.7861
  22   1.0000      -0.714628       -19.4460
  23   1.0000      -0.667292       -18.1579
  24   1.0000      -0.615887       -16.7591
  25   1.0000      -0.598709       -16.2917
  26   1.0000      -0.584396       -15.9022
  27   1.0000      -0.559449       -15.2234
  28   1.0000      -0.537245       -14.6192
  29   1.0000      -0.487556       -13.2671
  30   1.0000      -0.478008       -13.0073
  31   1.0000      -0.471320       -12.8253
  32   1.0000      -0.470007       -12.7895
  33   1.0000      -0.457607       -12.4521
  34   1.0000      -0.455970       -12.4076
  35   1.0000      -0.446144       -12.1402
  36   1.0000      -0.430785       -11.7223
  37   1.0000      -0.424925       -11.5628
  38   1.0000      -0.422147       -11.4872
  39   1.0000      -0.407781       -11.0963
  40   1.0000      -0.400843       -10.9075
  41   1.0000      -0.392173       -10.6716
  42   1.0000      -0.387672       -10.5491
  43   1.0000      -0.374882       -10.2011
  44   1.0000      -0.370826       -10.0907
  45   1.0000      -0.360778        -9.8173
  46   1.0000      -0.357163        -9.7189
  47   1.0000      -0.341375        -9.2893
  48   1.0000      -0.329707        -8.9718
  49   1.0000      -0.271291        -7.3822
  50   1.0000      -0.269461        -7.3324
  51   1.0000      -0.249228        -6.7818
  52   1.0000      -0.245429        -6.6785
  53   1.0000      -0.237433        -6.4609
  54   1.0000      -0.185927        -5.0593
  55   0.0000       0.004932         0.1342
  56   0.0000       0.010994         0.2992
  57   0.0000       0.024129         0.6566
  58   0.0000       0.027648         0.7523
  59   0.0000       0.032568         0.8862

                 SPIN DOWN ORBITALS
  NO   OCC          E(Eh)            E(eV)
   0   1.0000     -19.122446      -520.3482
   1   1.0000     -19.098681      -519.7015
   2   1.0000     -14.372523      -391.0962
   3   1.0000     -14.349524      -390.4704
   4   1.0000     -14.307489      -389.3266
   5   1.0000     -10.302733      -280.3516
   6   1.0000     -10.287353      -279.9331
   7   1.0000     -10.240464      -278.6572
   8   1.0000     -10.227056      -278.2923
   9   1.0000     -10.205232      -277.6985
  10   1.0000     -10.196495      -277.4607
  11   1.0000     -10.185105      -277.1508
  12   1.0000     -10.184224      -277.1268
  13   1.0000     -10.177448      -276.9424
  14   1.0000      -1.045277       -28.4434
  15   1.0000      -1.020955       -27.7816
  16   1.0000      -0.931315       -25.3424
  17   1.0000      -0.916352       -24.9352
  18   1.0000      -0.874806       -23.8047
  19   1.0000      -0.792278       -21.5590
  20   1.0000      -0.754469       -20.5301
  21   1.0000      -0.727068       -19.7845
  22   1.0000      -0.713547       -19.4166
  23   1.0000      -0.663078       -18.0433
  24   1.0000      -0.611037       -16.6272
  25   1.0000      -0.598642       -16.2899
  26   1.0000      -0.580319       -15.7913
  27   1.0000      -0.548953       -14.9378
  28   1.0000      -0.536244       -14.5920
  29   1.0000      -0.486494       -13.2382
  30   1.0000      -0.476411       -12.9638
  31   1.0000      -0.470617       -12.8061
  32   1.0000      -0.467445       -12.7198
  33   1.0000      -0.455892       -12.4054
  34   1.0000      -0.454785       -12.3753
  35   1.0000      -0.445111       -12.1121
  36   1.0000      -0.428348       -11.6559
  37   1.0000      -0.423254       -11.5173
  38   1.0000      -0.417195       -11.3524
  39   1.0000      -0.407340       -11.0843
  40   1.0000      -0.399469       -10.8701
  41   1.0000      -0.390642       -10.6299
  42   1.0000      -0.384783       -10.4705
  43   1.0000      -0.372926       -10.1478
  44   1.0000      -0.367436        -9.9985
  45   1.0000      -0.357722        -9.7341
  46   1.0000      -0.351462        -9.5638
  47   1.0000      -0.339262        -9.2318
  48   1.0000      -0.327448        -8.9103
  49   1.0000      -0.271005        -7.3744
  50   1.0000      -0.269195        -7.3252
  51   1.0000      -0.248746        -6.7687
  52   1.0000      -0.245163        -6.6712
  53   1.0000      -0.236934        -6.4473
  54   0.0000      -0.044064        -1.1990
  55   0.0000       0.005322         0.1448
  56   0.0000       0.011350         0.3088
  57   0.0000       0.024352         0.6627
  58   0.0000       0.029007         0.7893

MULLIKEN ATOMIC CHARGES AND SPIN POPULATIONS
--------------------------------------------
   0 N :   -0.095850    0.004145
   1 C :   -0.151749    0.004433
   2 C :    0.103154    0.000806
   3 O :   -0.329735    0.001531
   4 C :   -0.273903   -0.060812
   5 C :   -0.082403    1.005666
   6 C :   -0.309143   -0.065126
   7 C :   -0.293078    0.010484
   8 N :   -0.458860    0.002078
   9 H :    0.143406    0.021060
  10 H :    0.170016    0.052269
  11 H :    0.157514   -0.000622
  12 H :    0.146729   -0.000848
  13 H :    0.209533   -0.000234
  14 H :    0.210273   -0.000016
  15 H :    0.250948    0.000125
  16 C :    0.172136   -0.001717
  17 N :   -0.110965    0.000419
  18 H :    0.235764    0.000548
  19 O :   -0.330582    0.001734
  20 C :   -0.554649    0.000407
  21 H :    0.184883    0.000020
  22 H :    0.186268   -0.000011
  23 H :    0.148918    0.000041
  24 C :   -0.439627    0.000013
  25 H :    0.184042   -0.000003
  26 H :    0.143387    0.000021
  27 H :    0.181889    0.000115
  28 H :    0.158243   -0.001480
  29 H :    0.126684    0.049762
  30 H :    0.185590    0.025971
  31 H :    0.131168   -0.050781
Sum of atomic charges         :    0.0000000

LOEWDIN ATOMIC CHARGES AND SPIN POPULATIONS
-------------------------------------------
   0 N :    0.069049    0.003281
   1 C :   -0.046539    0.003454
   2 C :   -0.093123    0.000928
   3 O :   -0.190662    0.001596
   4 C :   -0.069375    0.008100
   5 C :   -0.051366    0.828604
   6 C :   -0.097293    0.007393
   7 C :   -0.056956    0.007890
   8 N :   -0.097136    0.001992
   9 H :    0.047996    0.017561
  10 H :    0.059102    0.043430
  11 H :    0.038551   -0.000133
  12 H :    0.025925   -0.000030
  13 H :    0.049377    0.000039
  14 H :    0.051393    0.000186
  15 H :    0.090781    0.000441
  16 C :   -0.103386   -0.000015
  17 N :    0.041344    0.000703
  18 H :    0.079436    0.000718
  19 O :   -0.201092    0.001674
  20 C :   -0.042794    0.000013
  21 H :    0.053884   -0.000016
  22 H :    0.054216   -0.000011
  23 H :    0.033615    0.000036
  24 C :    0.012195    0.000174
  25 H :    0.040673   -0.000008
  26 H :    0.032888    0.000013
  27 H :    0.040058    0.000037
  28 H :    0.066042   -0.000606
  29 H :    0.049899    0.040582
  30 H :    0.064729    0.023309
  31 H :    0.048567    0.008665

  Mayer bond orders larger than 0.100000
B(  0-N ,  1-C ) :   1.0249 B(  0-N , 15-H ) :   0.8931 B(  0-N , 16-C ) :   1.2146
B(  1-C ,  2-C ) :   0.9104 B(  1-C ,  4-C ) :   0.9266 B(  1-C , 19-O ) :   0.1393
B(  1-C , 28-H ) :   0.9748 B(  2-C ,  3-O ) :   1.8316 B(  2-C , 17-N ) :   1.2142
B(  4-C ,  5-C ) :   0.9776 B(  4-C , 29-H ) :   0.9599 B(  4-C , 30-H ) :   0.9580
B(  5-C ,  6-C ) :   0.9700 B(  5-C , 31-H ) :   0.9857 B(  6-C ,  7-C ) :   0.9647
B(  6-C ,  9-H ) :   0.9705 B(  6-C , 10-H ) :   0.9497 B(  7-C ,  8-N ) :   1.0142
B(  7-C , 11-H ) :   0.9614 B(  7-C , 12-H ) :   0.9410 B(  8-N , 13-H ) :   0.9441
B(  8-N , 14-H ) :   0.9479 B( 16-C , 19-O ) :   1.8536 B( 16-C , 20-C ) :   0.8925
B( 17-N , 18-H ) :   0.9351 B( 17-N , 24-C ) :   0.9642 B( 20-C , 21-H ) :   0.9593
B( 20-C , 22-H ) :   0.9587 B( 20-C , 23-H ) :   0.9761 B( 24-C , 25-H ) :   0.9514
B( 24-C , 26-H ) :   0.9672 B( 24-C , 27-H ) :   0.9506

FINAL SINGLE POINT ENERGY      -668.217654229667

DIPOLE MOMENT
-------------
                                X             Y             Z
Electronic contribution:     -9.65567       0.86246      -0.20924
Nuclear contribution   :      9.83682      -1.69221       0.13787
                        -----------------------------------------
Total Dipole Moment    :      0.18116      -0.82975      -0.07136
                        -----------------------------------------
Magnitude (a.u.)       :      0.85229
Magnitude (Debye)      :      2.16634

Rotational constants in cm-1:     0.019289     0.013532     0.009114
Rotational constants in MHz :   578.258761   405.675531   273.232390

CHEMICAL SHIELDING SUMMARY (ppm)  --  Orbital contribution
----------------------------------------------------------

  Nucleus  Element    Isotropic     Anisotropy
  -------  -------  ------------   ------------
      0       N          126.198        115.180
      8       N          224.483         33.109
      9       H           29.873          3.107
     10       H           29.351          5.693
     11       H           29.311          5.429
     12       H           28.830          6.394
     13       H           31.225         13.987
     14       H           31.783         11.393
     15       H           25.402          6.990
     28       H           27.603          4.344
     29       H           29.586          6.062
     30       H           28.462          3.903
     31       H           27.453         10.082

                             ****ORCA TERMINATED NORMALLY****
TOTAL RUN TIME: 0 days 0 hours 6 minutes 42 seconds 38 msec
