                         Program Version 5.0.4 -  RELEASE  -
|  1> ! M062X def2-TZVP OPT FREQ
|  2> %pal nprocs 16 end
|  3> *XYZFile 0 2 opt.xyz
|  4>
|  5>                          ****END OF INPUT****
 Total Charge           Charge          ....    0
 Multiplicity           Mult            ....    2
 Number of Electrons    NEL             ....  109
FINAL SINGLE POINT ENERGY      -668.442920127729
FINAL SINGLE POINT ENERGY      -668.445909905396
FINAL SINGLE POINT ENERGY      -668.446060404244
FINAL SINGLE POINT ENERGY      -668.446106644293
FINAL SINGLE POINT ENERGY      -668.446107618995
FINAL SINGLE POINT ENERGY      -668.446115480202
FINAL SINGLE POINT ENERGY      -668.446112345463
FINAL SINGLE POINT ENERGY      -668.446117176475
FINAL SINGLE POINT ENERGY      -668.446129388573
FINAL SINGLE POINT ENERGY      -668.446141138520
FINAL SINGLE POINT ENERGY      -668.446134695461
FINAL SINGLE POINT ENERGY      -668.446143271120
FINAL SINGLE POINT ENERGY      -668.446148519531
FINAL SINGLE POINT ENERGY      -668.446154897591
FINAL SINGLE POINT ENERGY      -668.446160220510
FINAL SINGLE POINT ENERGY      -668.446186697171
FINAL SINGLE POINT ENERGY      -668.446193790742
FINAL SINGLE POINT ENERGY      -668.446200142952
FINAL SINGLE POINT ENERGY      -668.446202251969
                    ***********************HURRAY********************

CARTESIAN COORDINATES (ANGSTROEM)
---------------------------------
  N     -1.867735    0.764684    0.731738
  C     -1.558792   -0.098075   -0.379856
  C     -1.610507   -1.534573    0.137032
  O     -1.722344   -1.790665    1.322391
  C     -0.186875    0.218767   -0.993596
  C      0.953779   -0.076585   -0.088451
  C      2.346933    0.183746   -0.533221
  C      3.391277   -0.165322    0.515652
  N      4.731121    0.083722   -0.005199
  H      2.457618    1.243640   -0.810991
  H      2.574017   -0.374582   -1.450815
  H      3.312605   -1.228549    0.753785
  H      3.165086    0.386858    1.437796
  H      5.438294   -0.184607    0.667027
  H      4.858444    1.070988   -0.195054
  H     -1.908762    0.322718    1.638308
  C     -2.254059    2.047605    0.538511
  N     -1.505215   -2.493222   -0.803537
  H     -1.380531   -2.223790   -1.763561
  O     -2.311714    2.544767   -0.571281
  C     -2.596009    2.829112    1.784801
  H     -1.875194    3.639376    1.890470
  H     -3.580024    3.275652    1.652057
  H     -2.587599    2.220558    2.687261
  C     -1.464444   -3.894544   -0.438311
  H     -2.336450   -4.149311    0.162449
  H     -1.463534   -4.494739   -1.344637
  H     -0.571222   -4.119359    0.145584
  H     -2.321548    0.040035   -1.151760
  H     -0.074855   -0.332740   -1.937691
  H     -0.202917    1.276879   -1.282084
  H      0.760460   -0.401540    0.927263

 Multiplicity           Mult            ....    2
 Number of Electrons    NEL             ....  109
 Basis Dimension        Dim             ....  542

ORBITAL ENERGIES
----------------
                 SPIN UP ORBITALS
  NO   OCC          E(Eh)            E(eV)
   0   1.0000     -19.606299      -533.5145
   1   1.0000     -19.583584      -532.8964
   2   1.0000     -14.784964      -402.3193
   3   1.0000     -14.765805      -401.7980
   4   1.0000     -14.725095      -400.6902
   5   1.0000     -10.651147      -289.8324
   6   1.0000     -10.637139      -289.4513
   7   1.0000     -10.590414      -288.1798
   8   1.0000     -10.577491      -287.8282
   9   1.0000     -10.557218      -287.2765
  10   1.0000     -10.545643      -286.9615
  11   1.0000     -10.543653      -286.9074
  12   1.0000     -10.536339      -286.7084
  13   1.0000     -10.533942      -286.6431
  14   1.0000      -1.180308       -32.1178
  15   1.0000      -1.157247       -31.4903
  16   1.0000      -1.047152       -28.4945
  17   1.0000      -1.035249       -28.1706
  18   1.0000      -0.990888       -26.9634
  19   1.0000      -0.911895       -24.8139
  20   1.0000      -0.866465       -23.5777
  21   1.0000      -0.828136       -22.5347
  22   1.0000      -0.812465       -22.1083
  23   1.0000      -0.762093       -20.7376
  24   1.0000      -0.708167       -19.2702
  25   1.0000      -0.685090       -18.6422
  26   1.0000      -0.674935       -18.3659
  27   1.0000      -0.645147       -17.5553
  28   1.0000      -0.621414       -16.9095
  29   1.0000      -0.574935       -15.6448
  30   1.0000      -0.563440       -15.3320
  31   1.0000      -0.555015       -15.1027
  32   1.0000      -0.549085       -14.9414
  33   1.0000      -0.538174       -14.6445
  34   1.0000      -0.535247       -14.5648
  35   1.0000      -0.528625       -14.3846
  36   1.0000      -0.509847       -13.8736
  37   1.0000      -0.500037       -13.6067
  38   1.0000      -0.499270       -13.5858
  39   1.0000      -0.476039       -12.9537
  40   1.0000      -0.475846       -12.9484
  41   1.0000      -0.473672       -12.8893
  42   1.0000      -0.459725       -12.5097
  43   1.0000      -0.450972       -12.2716
  44   1.0000      -0.441958       -12.0263
  45   1.0000      -0.435538       -11.8516
  46   1.0000      -0.422935       -11.5087
  47   1.0000      -0.412007       -11.2113
  48   1.0000      -0.397947       -10.8287
  49   1.0000      -0.347928        -9.4676
  50   1.0000      -0.338553        -9.2125
  51   1.0000      -0.327564        -8.9135
  52   1.0000      -0.318020        -8.6538
  53   1.0000      -0.308955        -8.4071
  54   1.0000      -0.241820        -6.5803
  55   0.0000       0.043409         1.1812
  56   0.0000       0.054140         1.4732
  57   0.0000       0.064066         1.7433
  58   0.0000       0.070163         1.9092
  59   0.0000       0.072356         1.9689

                 SPIN DOWN ORBITALS
  NO   OCC          E(Eh)            E(eV)
   0   1.0000     -19.606281      -533.5140
   1   1.0000     -19.583504      -532.8942
   2   1.0000     -14.784924      -402.3182
   3   1.0000     -14.765750      -401.7965
   4   1.0000     -14.725067      -400.6894
   5   1.0000     -10.651160      -289.8328
   6   1.0000     -10.637146      -289.4514
   7   1.0000     -10.590393      -288.1792
   8   1.0000     -10.577486      -287.8280
   9   1.0000     -10.557178      -287.2754
  10   1.0000     -10.546327      -286.9801
  11   1.0000     -10.536990      -286.7261
  12   1.0000     -10.536339      -286.7084
  13   1.0000     -10.534596      -286.6609
  14   1.0000      -1.180266       -32.1167
  15   1.0000      -1.157096       -31.4862
  16   1.0000      -1.047045       -28.4915
  17   1.0000      -1.034927       -28.1618
  18   1.0000      -0.990432       -26.9510
  19   1.0000      -0.901721       -24.5371
  20   1.0000      -0.859876       -23.3984
  21   1.0000      -0.827947       -22.5296
  22   1.0000      -0.810934       -22.0666
  23   1.0000      -0.757616       -20.6158
  24   1.0000      -0.702781       -19.1236
  25   1.0000      -0.685006       -18.6400
  26   1.0000      -0.668585       -18.1931
  27   1.0000      -0.633123       -17.2281
  28   1.0000      -0.620363       -16.8809
  29   1.0000      -0.573110       -15.5951
  30   1.0000      -0.561431       -15.2773
  31   1.0000      -0.554213       -15.0809
  32   1.0000      -0.547644       -14.9021
  33   1.0000      -0.536550       -14.6003
  34   1.0000      -0.531084       -14.4515
  35   1.0000      -0.527530       -14.3548
  36   1.0000      -0.503810       -13.7094
  37   1.0000      -0.497995       -13.5511
  38   1.0000      -0.493933       -13.4406
  39   1.0000      -0.474375       -12.9084
  40   1.0000      -0.472666       -12.8619
  41   1.0000      -0.471794       -12.8382
  42   1.0000      -0.457822       -12.4580
  43   1.0000      -0.448327       -12.1996
  44   1.0000      -0.438566       -11.9340
  45   1.0000      -0.432256       -11.7623
  46   1.0000      -0.416372       -11.3301
  47   1.0000      -0.408254       -11.1092
  48   1.0000      -0.395539       -10.7632
  49   1.0000      -0.347093        -9.4449
  50   1.0000      -0.338050        -9.1988
  51   1.0000      -0.327106        -8.9010
  52   1.0000      -0.316999        -8.6260
  53   1.0000      -0.308333        -8.3902
  54   0.0000      -0.010001        -0.2721
  55   0.0000       0.038664         1.0521
  56   0.0000       0.053491         1.4556
  57   0.0000       0.061034         1.6608
  58   0.0000       0.070658         1.9227

MULLIKEN ATOMIC CHARGES AND SPIN POPULATIONS
--------------------------------------------
   0 N :   -0.374112    0.000552
   1 C :   -0.141497    0.004738
   2 C :    0.399089    0.016491
   3 O :   -0.408698    0.000316
   4 C :   -0.264860   -0.057967
   5 C :   -0.272665    0.991172
   6 C :   -0.195911   -0.063544
   7 C :   -0.169412    0.017732
   8 N :   -0.551663    0.002446
   9 H :    0.135888    0.045201
  10 H :    0.147021    0.038521
  11 H :    0.134483   -0.003793
  12 H :    0.127035   -0.002980
  13 H :    0.227262   -0.000473
  14 H :    0.226412   -0.000430
  15 H :    0.266527    0.000040
  16 C :    0.391030   -0.005676
  17 N :   -0.359063   -0.000429
  18 H :    0.246393   -0.000817
  19 O :   -0.415559    0.001902
  20 C :   -0.457277    0.000759
  21 H :    0.157253    0.000004
  22 H :    0.159555    0.000009
  23 H :    0.128567   -0.000025
  24 C :   -0.289953   -0.000378
  25 H :    0.160595    0.000144
  26 H :    0.136823    0.000106
  27 H :    0.156624    0.000400
  28 H :    0.188526   -0.002360
  29 H :    0.139736    0.033900
  30 H :    0.195946    0.042510
  31 H :    0.175904   -0.058073
Sum of atomic charges         :   -0.0000000

LOEWDIN ATOMIC CHARGES AND SPIN POPULATIONS
-------------------------------------------
   0 N :    0.147092    0.002886
   1 C :   -0.246387    0.000653
   2 C :   -0.439641    0.004766
   3 O :    0.060158    0.000774
   4 C :   -0.255912    0.062571
   5 C :   -0.137903    0.757404
   6 C :   -0.290633    0.061168
   7 C :   -0.343705    0.001410
   8 N :   -0.181771    0.001826
   9 H :    0.144268    0.028059
  10 H :    0.147537    0.024372
  11 H :    0.130801   -0.000022
  12 H :    0.115734   -0.000233
  13 H :    0.146986   -0.000168
  14 H :    0.148453    0.000235
  15 H :    0.194471    0.000235
  16 C :   -0.481296    0.000228
  17 N :    0.101029    0.001981
  18 H :    0.186039    0.000431
  19 O :    0.050304    0.002278
  20 C :   -0.262528   -0.000030
  21 H :    0.138633   -0.000012
  22 H :    0.138266   -0.000018
  23 H :    0.122061    0.000028
  24 C :   -0.300995    0.000546
  25 H :    0.123918    0.000030
  26 H :    0.117696    0.000023
  27 H :    0.120121    0.000180
  28 H :    0.165843   -0.000475
  29 H :    0.142163    0.023310
  30 H :    0.160929    0.026229
  31 H :    0.138269   -0.000667

  Mayer bond orders larger than 0.100000
B(  0-N ,  1-C ) :   0.9432 B(  0-N , 15-H ) :   0.8748 B(  0-N , 16-C ) :   1.2167
B(  1-C ,  2-C ) :   0.9422 B(  1-C ,  4-C ) :   0.8994 B(  1-C , 28-H ) :   0.9890
B(  2-C ,  3-O ) :   1.8978 B(  2-C , 17-N ) :   1.2262 B(  4-C ,  5-C ) :   0.9237
B(  4-C , 29-H ) :   0.9727 B(  4-C , 30-H ) :   0.9408 B(  5-C ,  6-C ) :   0.9494
B(  5-C , 31-H ) :   0.9540 B(  6-C ,  7-C ) :   0.9273 B(  6-C ,  9-H ) :   0.9568
B(  6-C , 10-H ) :   0.9478 B(  7-C ,  8-N ) :   0.9779 B(  7-C , 11-H ) :   0.9677
B(  7-C , 12-H ) :   0.9950 B(  8-N , 13-H ) :   0.9371 B(  8-N , 14-H ) :   0.9314
B( 16-C , 19-O ) :   1.9110 B( 16-C , 20-C ) :   0.9096 B( 17-N , 18-H ) :   0.9178
B( 17-N , 24-C ) :   0.9207 B( 20-C , 21-H ) :   0.9557 B( 20-C , 22-H ) :   0.9661
B( 20-C , 23-H ) :   0.9858 B( 24-C , 25-H ) :   0.9705 B( 24-C , 26-H ) :   0.9647
B( 24-C , 27-H ) :   0.9706

FINAL SINGLE POINT ENERGY      -668.446203350867

DIPOLE MOMENT
-------------
                                X             Y             Z
Electronic contribution:    -10.04410       1.22390      -0.19652
Nuclear contribution   :     10.45855      -2.01199       0.26231
                        -----------------------------------------
Total Dipole Moment    :      0.41445      -0.78809       0.06579
                        -----------------------------------------
Magnitude (a.u.)       :      0.89285
Magnitude (Debye)      :      2.26944

VIBRATIONAL FREQUENCIES
-----------------------

Scaling factor for frequencies =  1.000000000  (already applied!)

   0:         0.00 cm**-1
   1:         0.00 cm**-1
   2:         0.00 cm**-1
   3:         0.00 cm**-1
   4:         0.00 cm**-1
   5:         0.00 cm**-1
   6:      -175.17 cm**-1 ***imaginary mode***
   7:        28.98 cm**-1
   8:        47.49 cm**-1
   9:        51.74 cm**-1
  10:        65.24 cm**-1
  11:        90.58 cm**-1
  12:       101.04 cm**-1
  13:       106.01 cm**-1
  14:       108.71 cm**-1
  15:       141.74 cm**-1
  16:       149.92 cm**-1
  17:       175.80 cm**-1
  18:       202.57 cm**-1
  19:       230.43 cm**-1
  20:       240.34 cm**-1
  21:       268.21 cm**-1
  22:       294.68 cm**-1
  23:       330.26 cm**-1
  24:       360.48 cm**-1
  25:       382.37 cm**-1
  26:       416.62 cm**-1
  27:       443.56 cm**-1
  28:       510.08 cm**-1
  29:       547.89 cm**-1
  30:       577.17 cm**-1
  31:       636.09 cm**-1
  32:       666.10 cm**-1
  33:       701.37 cm**-1
  34:       770.26 cm**-1
  35:       810.61 cm**-1
  36:       846.33 cm**-1
  37:       886.65 cm**-1
  38:       918.40 cm**-1
  39:       962.60 cm**-1
  40:       989.45 cm**-1
  41:      1021.67 cm**-1
  42:      1034.11 cm**-1
  43:      1050.50 cm**-1
  44:      1067.03 cm**-1
  45:      1082.80 cm**-1
  46:      1103.27 cm**-1
  47:      1121.26 cm**-1
  48:      1149.58 cm**-1
  49:      1159.37 cm**-1
  50:      1164.13 cm**-1
  51:      1173.89 cm**-1
  52:      1203.12 cm**-1
  53:      1228.09 cm**-1
  54:      1240.48 cm**-1
  55:      1261.99 cm**-1
  56:      1281.23 cm**-1
  57:      1288.16 cm**-1
  58:      1323.15 cm**-1
  59:      1335.74 cm**-1
  60:      1371.70 cm**-1
  61:      1386.78 cm**-1
  62:      1410.54 cm**-1
  63:      1427.82 cm**-1
  64:      1455.41 cm**-1
  65:      1464.26 cm**-1
  66:      1469.62 cm**-1
  67:      1476.28 cm**-1
  68:      1479.60 cm**-1
  69:      1489.46 cm**-1
  70:      1490.62 cm**-1
  71:      1521.29 cm**-1
  72:      1523.45 cm**-1
  73:      1548.14 cm**-1
  74:      1578.42 cm**-1
  75:      1656.02 cm**-1
  76:      1772.23 cm**-1
  77:      1784.91 cm**-1
  78:      2988.91 cm**-1
  79:      3009.62 cm**-1
  80:      3011.10 cm**-1
  81:      3036.11 cm**-1
  82:      3055.73 cm**-1
  83:      3081.09 cm**-1
  84:      3082.26 cm**-1
  85:      3089.19 cm**-1
  86:      3100.39 cm**-1
  87:      3149.49 cm**-1
  88:      3172.03 cm**-1
  89:      3183.15 cm**-1
  90:      3186.53 cm**-1
  91:      3194.33 cm**-1
  92:      3526.07 cm**-1
  93:      3612.62 cm**-1
  94:      3620.47 cm**-1
  95:      3672.68 cm**-1

IR SPECTRUM
-----------

 Mode   freq       eps      Int      T**2         TX        TY        TZ
       cm**-1   L/(mol*cm) km/mol    a.u.
----------------------------------------------------------------------------
  7:     28.98   0.000241    1.22  0.002597  ( 0.043759 -0.016400  0.020339)
  8:     47.49   0.000785    3.97  0.005161  ( 0.067647  0.020321 -0.013110)
  9:     51.74   0.000499    2.52  0.003007  ( 0.020478 -0.037058  0.034848)
 10:     65.24   0.000163    0.83  0.000781  (-0.021958 -0.017247 -0.001158)
 11:     90.58   0.001813    9.16  0.006246  (-0.077257 -0.004948 -0.015899)
 12:    101.04   0.000202    1.02  0.000624  (-0.018829  0.010076  0.012969)
 13:    106.01   0.001505    7.61  0.004430  ( 0.045414  0.048608 -0.002252)
 14:    108.71   0.001065    5.38  0.003056  ( 0.031036  0.042989  0.015651)
 15:    141.74   0.001525    7.71  0.003359  (-0.056449  0.012848 -0.002655)
 16:    149.92   0.001547    7.82  0.003220  (-0.024567  0.050558  0.007781)
 17:    175.80   0.000789    3.99  0.001401  (-0.006275 -0.036894 -0.000034)
 18:    202.57   0.001254    6.34  0.001932  ( 0.025783 -0.030923  0.017636)
 19:    230.43   0.001788    9.04  0.002422  (-0.005431 -0.048288 -0.007780)
 20:    240.34   0.002588   13.08  0.003360  ( 0.013611 -0.055276 -0.010920)
 21:    268.21   0.005141   25.98  0.005982  ( 0.037744 -0.047985  0.047482)
 22:    294.68   0.001122    5.67  0.001188  (-0.015227  0.030874 -0.001699)
 23:    330.26   0.002387   12.06  0.002256  (-0.043933  0.014594 -0.010611)
 24:    360.48   0.000695    3.51  0.000602  ( 0.000598 -0.023571 -0.006755)
 25:    382.37   0.004160   21.02  0.003395  ( 0.033328  0.045687  0.014035)
 26:    416.62   0.015613   78.90  0.011695  (-0.107329 -0.000441 -0.013231)
 27:    443.56   0.000959    4.85  0.000675  ( 0.011126  0.014754  0.018263)
 28:    510.08   0.002660   13.44  0.001627  ( 0.015011  0.021265  0.030819)
 29:    547.89   0.012868   65.03  0.007329  (-0.084841 -0.009012 -0.007068)
 30:    577.17   0.003885   19.63  0.002100  (-0.024540 -0.036087 -0.013996)
 31:    636.09   0.003147   15.90  0.001544  (-0.033910  0.019692 -0.002491)
 32:    666.10   0.000577    2.91  0.000270  (-0.010681 -0.011972 -0.003582)
 33:    701.37   0.000257    1.30  0.000114  (-0.009381 -0.004951  0.001379)
 34:    770.26   0.001283    6.48  0.000520  (-0.011168  0.005722  0.019035)
 35:    810.61   0.002311   11.68  0.000890  ( 0.028375  0.003740 -0.008392)
 36:    846.33   0.026330  133.06  0.009709  (-0.057599  0.033511  0.072581)
 37:    886.65   0.001671    8.44  0.000588  ( 0.003993  0.020778 -0.011845)
 38:    918.40   0.000369    1.87  0.000125  ( 0.002096  0.010579 -0.003022)
 39:    962.60   0.001063    5.37  0.000345  ( 0.003836 -0.011827 -0.013783)
 40:    989.45   0.000720    3.64  0.000227  (-0.000094 -0.011288 -0.009979)
 41:   1021.67   0.000951    4.81  0.000291  ( 0.008193 -0.012923  0.007511)
 42:   1034.11   0.001949    9.85  0.000588  ( 0.013640 -0.018327 -0.008134)
 43:   1050.50   0.001846    9.33  0.000548  (-0.015786  0.003822  0.016866)
 44:   1067.03   0.001301    6.57  0.000380  ( 0.018916  0.004473  0.001634)
 45:   1082.80   0.000963    4.87  0.000278  (-0.001861 -0.005175 -0.015726)
 46:   1103.27   0.001218    6.15  0.000344  ( 0.016070 -0.000429 -0.009271)
 47:   1121.26   0.002929   14.80  0.000815  (-0.027690 -0.004335 -0.005457)
 48:   1149.58   0.000045    0.23  0.000012  ( 0.001316 -0.001321 -0.002947)
 49:   1159.37   0.000601    3.04  0.000162  (-0.000739 -0.001264 -0.012636)
 50:   1164.13   0.000131    0.66  0.000035  (-0.001569  0.005387  0.001929)
 51:   1173.89   0.000183    0.92  0.000049  (-0.005416 -0.004351 -0.000534)
 52:   1203.12   0.000024    0.12  0.000006  ( 0.001092  0.001407 -0.001773)
 53:   1228.09   0.000348    1.76  0.000089  (-0.000992 -0.006320 -0.006901)
 54:   1240.48   0.000545    2.75  0.000137  (-0.008658  0.006939  0.003745)
 55:   1261.99   0.011268   56.94  0.002786  (-0.009209  0.051199  0.008949)
 56:   1281.23   0.001466    7.41  0.000357  ( 0.012067  0.013622 -0.005089)
 57:   1288.16   0.000948    4.79  0.000230  (-0.014036 -0.001645  0.005479)
 58:   1323.15   0.003570   18.04  0.000842  ( 0.017896 -0.022560 -0.003583)
 59:   1335.74   0.002234   11.29  0.000522  (-0.003676  0.022541  0.000466)
 60:   1371.70   0.002296   11.60  0.000522  (-0.003806  0.022455 -0.001898)
 61:   1386.78   0.000211    1.07  0.000048  ( 0.002746  0.004927 -0.003968)
 62:   1410.54   0.005784   29.23  0.001280  (-0.010403  0.030305  0.015909)
 63:   1427.82   0.002140   10.82  0.000468  ( 0.021429  0.002446  0.001619)
 64:   1455.41   0.001004    5.07  0.000215  ( 0.011669  0.004662 -0.007577)
 65:   1464.26   0.004392   22.20  0.000936  ( 0.003677 -0.025766 -0.016085)
 66:   1469.62   0.000400    2.02  0.000085  (-0.000934  0.000523  0.009157)
 67:   1476.28   0.002544   12.86  0.000538  ( 0.018166 -0.011647  0.008496)
 68:   1479.60   0.003166   16.00  0.000668  (-0.007911 -0.011759  0.021609)
 69:   1489.46   0.008786   44.40  0.001841  ( 0.003671  0.042554 -0.004048)
 70:   1490.62   0.002315   11.70  0.000485  (-0.019389  0.007370 -0.007374)
 71:   1521.29   0.004495   22.72  0.000922  ( 0.003226 -0.030172 -0.001174)
 72:   1523.45   0.000419    2.12  0.000086  (-0.006906  0.005019 -0.003590)
 73:   1548.14   0.124357  628.45  0.025067  ( 0.044112 -0.143523 -0.050226)
 74:   1578.42   0.017672   89.30  0.003494  (-0.020277 -0.048239 -0.027489)
 75:   1656.02   0.007633   38.57  0.001438  ( 0.027164  0.024427  0.010186)
 76:   1772.23   0.084682  427.95  0.014911  ( 0.005986 -0.042058  0.114484)
 77:   1784.91   0.015616   78.92  0.002730  (-0.020999  0.042037  0.022851)
 78:   2988.91   0.004914   24.83  0.000513  (-0.009263 -0.016522  0.012420)
 79:   3009.62   0.008655   43.74  0.000897  ( 0.014005 -0.004338 -0.026124)
 80:   3011.10   0.004606   23.27  0.000477  ( 0.001133  0.006791  0.020734)
 81:   3036.11   0.005353   27.05  0.000550  ( 0.005269 -0.009123 -0.020958)
 82:   3055.73   0.000971    4.91  0.000099  (-0.004476 -0.008682 -0.001946)
 83:   3081.09   0.007659   38.71  0.000776  ( 0.001569  0.027393  0.004788)
 84:   3082.26   0.001267    6.40  0.000128  (-0.006519  0.004388 -0.008157)
 85:   3089.19   0.000586    2.96  0.000059  ( 0.001089 -0.001366 -0.007494)
 86:   3100.39   0.004557   23.03  0.000459  (-0.001081 -0.021351  0.001276)
 87:   3149.49   0.002132   10.77  0.000211  (-0.013893 -0.002889 -0.003146)
 88:   3172.03   0.000423    2.14  0.000042  ( 0.004745  0.002720 -0.003417)
 89:   3183.15   0.001273    6.43  0.000125  (-0.002128  0.006290 -0.008985)
 90:   3186.53   0.001248    6.30  0.000122  (-0.000837  0.003390  0.010487)
 91:   3194.33   0.000640    3.23  0.000063  (-0.001877 -0.002253  0.007342)
 92:   3526.07   0.000158    0.80  0.000014  ( 0.003196  0.001577  0.001141)
 93:   3612.62   0.000818    4.13  0.000071  (-0.002835  0.006265 -0.004832)
 94:   3620.47   0.020530  103.75  0.001770  ( 0.001867 -0.034702  0.023704)
 95:   3672.68   0.008612   43.52  0.000732  ( 0.002932 -0.001193 -0.026865)

--------------------------
THERMOCHEMISTRY AT 298.15K
--------------------------

Temperature         ... 298.15 K
Pressure            ... 1.00 atm
Total Mass          ... 200.26 AMU

Throughout the following assumptions are being made:
  (1) The electronic state is orbitally nondegenerate
      but the spin degeneracy is treated
  (2) There are no thermally accessible electronically excited states
  (3) Hindered rotations indicated by low frequency modes are not
      treated as such but are treated as vibrations and this may
      cause some error
  (4) All equations used are the standard statistical mechanics
      equations for an ideal gas
  (5) All vibrations are strictly harmonic

freq.      28.98  E(vib)   ...       0.55
freq.      47.49  E(vib)   ...       0.53
freq.      51.74  E(vib)   ...       0.52
freq.      65.24  E(vib)   ...       0.50
freq.      90.58  E(vib)   ...       0.47
freq.     101.04  E(vib)   ...       0.46
freq.     106.01  E(vib)   ...       0.45
freq.     108.71  E(vib)   ...       0.45
freq.     141.74  E(vib)   ...       0.41
freq.     149.92  E(vib)   ...       0.40
freq.     175.80  E(vib)   ...       0.38
freq.     202.57  E(vib)   ...       0.35
freq.     230.43  E(vib)   ...       0.32
freq.     240.34  E(vib)   ...       0.31
freq.     268.21  E(vib)   ...       0.29
freq.     294.68  E(vib)   ...       0.27
freq.     330.26  E(vib)   ...       0.24
freq.     360.48  E(vib)   ...       0.22
freq.     382.37  E(vib)   ...       0.21
freq.     416.62  E(vib)   ...       0.18
freq.     443.56  E(vib)   ...       0.17
freq.     510.08  E(vib)   ...       0.14
freq.     547.89  E(vib)   ...       0.12
freq.     577.17  E(vib)   ...       0.11
freq.     636.09  E(vib)   ...       0.09
freq.     666.10  E(vib)   ...       0.08
freq.     701.37  E(vib)   ...       0.07
freq.     770.26  E(vib)   ...       0.05
freq.     810.61  E(vib)   ...       0.05
freq.     846.33  E(vib)   ...       0.04
freq.     886.65  E(vib)   ...       0.04
freq.     918.40  E(vib)   ...       0.03
freq.     962.60  E(vib)   ...       0.03
freq.     989.45  E(vib)   ...       0.02
freq.    1021.67  E(vib)   ...       0.02
freq.    1034.11  E(vib)   ...       0.02
freq.    1050.50  E(vib)   ...       0.02
freq.    1067.03  E(vib)   ...       0.02
freq.    1082.80  E(vib)   ...       0.02
freq.    1103.27  E(vib)   ...       0.02
freq.    1121.26  E(vib)   ...       0.01
freq.    1149.58  E(vib)   ...       0.01
freq.    1159.37  E(vib)   ...       0.01
freq.    1164.13  E(vib)   ...       0.01
freq.    1173.89  E(vib)   ...       0.01
freq.    1203.12  E(vib)   ...       0.01
freq.    1228.09  E(vib)   ...       0.01
freq.    1240.48  E(vib)   ...       0.01
freq.    1261.99  E(vib)   ...       0.01
freq.    1281.23  E(vib)   ...       0.01
freq.    1288.16  E(vib)   ...       0.01
freq.    1323.15  E(vib)   ...       0.01
freq.    1335.74  E(vib)   ...       0.01
freq.    1371.70  E(vib)   ...       0.01
freq.    1386.78  E(vib)   ...       0.00
freq.    1410.54  E(vib)   ...       0.00
freq.    1427.82  E(vib)   ...       0.00
freq.    1455.41  E(vib)   ...       0.00
freq.    1464.26  E(vib)   ...       0.00
freq.    1469.62  E(vib)   ...       0.00
freq.    1476.28  E(vib)   ...       0.00
freq.    1479.60  E(vib)   ...       0.00
freq.    1489.46  E(vib)   ...       0.00
freq.    1490.62  E(vib)   ...       0.00
freq.    1521.29  E(vib)   ...       0.00
freq.    1523.45  E(vib)   ...       0.00
freq.    1548.14  E(vib)   ...       0.00
freq.    1578.42  E(vib)   ...       0.00
freq.    1656.02  E(vib)   ...       0.00
freq.    1772.23  E(vib)   ...       0.00
freq.    1784.91  E(vib)   ...       0.00
freq.    2988.91  E(vib)   ...       0.00
freq.    3009.62  E(vib)   ...       0.00
freq.    3011.10  E(vib)   ...       0.00
freq.    3036.11  E(vib)   ...       0.00
freq.    3055.73  E(vib)   ...       0.00
freq.    3081.09  E(vib)   ...       0.00
freq.    3082.26  E(vib)   ...       0.00
freq.    3089.19  E(vib)   ...       0.00
freq.    3100.39  E(vib)   ...       0.00
freq.    3149.49  E(vib)   ...       0.00
freq.    3172.03  E(vib)   ...       0.00
freq.    3183.15  E(vib)   ...       0.00
freq.    3186.53  E(vib)   ...       0.00
freq.    3194.33  E(vib)   ...       0.00
freq.    3526.07  E(vib)   ...       0.00
freq.    3612.62  E(vib)   ...       0.00
freq.    3620.47  E(vib)   ...       0.00
freq.    3672.68  E(vib)   ...       0.00

------------
INNER ENERGY
------------

The inner energy is: U= E(el) + E(ZPE) + E(vib) + E(rot) + E(trans)
    E(el)   - is the total energy from the electronic structure calculation
              = E(kin-el) + E(nuc-el) + E(el-el) + E(nuc-nuc)
    E(ZPE)  - the the zero temperature vibrational energy from the frequency calculation
    E(vib)  - the the finite temperature correction to E(ZPE) due to population
              of excited vibrational states
    E(rot)  - is the rotational thermal energy
    E(trans)- is the translational thermal energy

Summary of contributions to the inner energy U:
Electronic energy                ...   -668.44620335 Eh
Zero point energy                ...      0.27663264 Eh     173.59 kcal/mol
Thermal vibrational correction   ...      0.01411369 Eh       8.86 kcal/mol
Thermal rotational correction    ...      0.00141627 Eh       0.89 kcal/mol
Thermal translational correction ...      0.00141627 Eh       0.89 kcal/mol
-----------------------------------------------------------------------
Total thermal energy                   -668.15262449 Eh

Summary of corrections to the electronic energy:
(perhaps to be used in another calculation)
Total thermal correction                  0.01694623 Eh      10.63 kcal/mol
Non-thermal (ZPE) correction              0.27663264 Eh     173.59 kcal/mol
-----------------------------------------------------------------------
Total correction                          0.29357887 Eh     184.22 kcal/mol

--------
ENTHALPY
--------

The enthalpy is H = U + kB*T
                kB is Boltzmann's constant
Total free energy                 ...   -668.15262449 Eh
Thermal Enthalpy correction       ...      0.00094421 Eh       0.59 kcal/mol
-----------------------------------------------------------------------
Total Enthalpy                    ...   -668.15168028 Eh

Note: Only C1 symmetry has been detected, increase convergence thresholds
      if your molecule has a higher symmetry. Symmetry factor of 1.0 is
      used for the rotational entropy correction.

Note: Rotational entropy computed according to Herzberg
Infrared and Raman Spectra, Chapter V,1, Van Nostrand Reinhold, 1945
Point Group:  C1, Symmetry Number:   1
Rotational constants in cm-1:     0.020261     0.013835     0.009410

                             ****ORCA TERMINATED NORMALLY****
TOTAL RUN TIME: 0 days 0 hours 38 minutes 35 seconds 876 msec
