                         Program Version 5.0.4 -  RELEASE  -
|  1> ! B3LYP EPR-II OPT
|  2> %pal nprocs 16 end
|  3> *XYZFile 0 2 model.xyz
|  4>
|  5>                          ****END OF INPUT****
 Total Charge           Charge          ....    0
 Multiplicity           Mult            ....    2
 Number of Electrons    NEL             ....  109
FINAL SINGLE POINT ENERGY      -668.216760370334
FINAL SINGLE POINT ENERGY      -668.218135040333
FINAL SINGLE POINT ENERGY      -668.218212831058
FINAL SINGLE POINT ENERGY      -668.218234967903
FINAL SINGLE POINT ENERGY      -668.218245080910
FINAL SINGLE POINT ENERGY      -668.218249560861
FINAL SINGLE POINT ENERGY      -668.218256280350
FINAL SINGLE POINT ENERGY      -668.218262085358
FINAL SINGLE POINT ENERGY      -668.218272219600
FINAL SINGLE POINT ENERGY      -668.218277246742
FINAL SINGLE POINT ENERGY      -668.218281118983
                    ***********************HURRAY********************

CARTESIAN COORDINATES (ANGSTROEM)
---------------------------------
  N     -1.775606    0.710626    0.721610
  C     -1.501247   -0.164784   -0.403937
  C     -1.643328   -1.612529    0.105525
  O     -1.606619   -1.887255    1.307623
  C     -0.100491    0.081293   -1.030473
  C      1.057161   -0.186297   -0.113734
  C      2.457603    0.153953   -0.531047
  C      3.459883    0.164276    0.634630
  N      4.827007    0.407049    0.136695
  H      2.468021    1.134075   -1.033840
  H      2.827442   -0.564632   -1.283790
  H      3.448665   -0.819955    1.118027
  H      3.123753    0.897667    1.386638
  H      5.479647    0.398553    0.916215
  H      4.878086    1.343287   -0.258307
  H     -1.745618    0.273095    1.633200
  C     -2.156619    2.011599    0.558108
  N     -1.785011   -2.562577   -0.859268
  H     -1.817916   -2.274693   -1.824389
  O     -2.255790    2.535063   -0.553724
  C     -2.450462    2.783469    1.840696
  H     -1.770724    3.638401    1.894438
  H     -3.469788    3.174515    1.783252
  H     -2.343819    2.180815    2.746534
  C     -1.869930   -3.984736   -0.536561
  H     -2.720701   -4.180470    0.122022
  H     -1.996520   -4.547374   -1.463272
  H     -0.961338   -4.324385   -0.030712
  H     -2.250282    0.028568   -1.180868
  H     -0.018390   -0.533702   -1.945852
  H     -0.084071    1.121985   -1.380250
  H      0.906306   -0.807998    0.766890

 Multiplicity           Mult            ....    2
 Number of Electrons    NEL             ....  109
 Basis Dimension        Dim             ....  364

ORBITAL ENERGIES
----------------
                 SPIN UP ORBITALS
  NO   OCC          E(Eh)            E(eV)
   0   1.0000     -19.122565      -520.3515
   1   1.0000     -19.098805      -519.7049
   2   1.0000     -14.372423      -391.0935
   3   1.0000     -14.349453      -390.4685
   4   1.0000     -14.307463      -389.3259
   5   1.0000     -10.302626      -280.3487
   6   1.0000     -10.287248      -279.9303
   7   1.0000     -10.240468      -278.6573
   8   1.0000     -10.227002      -278.2909
   9   1.0000     -10.205394      -277.7029
  10   1.0000     -10.195518      -277.4342
  11   1.0000     -10.191165      -277.3157
  12   1.0000     -10.185019      -277.1485
  13   1.0000     -10.183313      -277.1020
  14   1.0000      -1.045379       -28.4462
  15   1.0000      -1.021078       -27.7849
  16   1.0000      -0.931344       -25.3432
  17   1.0000      -0.916587       -24.9416
  18   1.0000      -0.875241       -23.8165
  19   1.0000      -0.800462       -21.7817
  20   1.0000      -0.760440       -20.6926
  21   1.0000      -0.727100       -19.7854
  22   1.0000      -0.714604       -19.4454
  23   1.0000      -0.667270       -18.1573
  24   1.0000      -0.615869       -16.7586
  25   1.0000      -0.598662       -16.2904
  26   1.0000      -0.584372       -15.9016
  27   1.0000      -0.559421       -15.2226
  28   1.0000      -0.537198       -14.6179
  29   1.0000      -0.487538       -13.2666
  30   1.0000      -0.477992       -13.0068
  31   1.0000      -0.471291       -12.8245
  32   1.0000      -0.470004       -12.7895
  33   1.0000      -0.457595       -12.4518
  34   1.0000      -0.455961       -12.4073
  35   1.0000      -0.446133       -12.1399
  36   1.0000      -0.430774       -11.7220
  37   1.0000      -0.424907       -11.5623
  38   1.0000      -0.422135       -11.4869
  39   1.0000      -0.407770       -11.0960
  40   1.0000      -0.400847       -10.9076
  41   1.0000      -0.392195       -10.6722
  42   1.0000      -0.387658       -10.5487
  43   1.0000      -0.374887       -10.2012
  44   1.0000      -0.370819       -10.0905
  45   1.0000      -0.360775        -9.8172
  46   1.0000      -0.357158        -9.7188
  47   1.0000      -0.341375        -9.2893
  48   1.0000      -0.329703        -8.9717
  49   1.0000      -0.271340        -7.3835
  50   1.0000      -0.269502        -7.3335
  51   1.0000      -0.249263        -6.7828
  52   1.0000      -0.245468        -6.6795
  53   1.0000      -0.237477        -6.4621
  54   1.0000      -0.185938        -5.0596
  55   0.0000       0.005016         0.1365
  56   0.0000       0.011199         0.3048
  57   0.0000       0.024411         0.6643
  58   0.0000       0.027835         0.7574
  59   0.0000       0.032871         0.8945

                 SPIN DOWN ORBITALS
  NO   OCC          E(Eh)            E(eV)
   0   1.0000     -19.122521      -520.3503
   1   1.0000     -19.098752      -519.7035
   2   1.0000     -14.372403      -391.0930
   3   1.0000     -14.349379      -390.4664
   4   1.0000     -14.307408      -389.3244
   5   1.0000     -10.302643      -280.3492
   6   1.0000     -10.287256      -279.9305
   7   1.0000     -10.240380      -278.6549
   8   1.0000     -10.227002      -278.2909
   9   1.0000     -10.205168      -277.6968
  10   1.0000     -10.196428      -277.4589
  11   1.0000     -10.185020      -277.1485
  12   1.0000     -10.184181      -277.1257
  13   1.0000     -10.177364      -276.9402
  14   1.0000      -1.045311       -28.4444
  15   1.0000      -1.020993       -27.7826
  16   1.0000      -0.931293       -25.3418
  17   1.0000      -0.916326       -24.9345
  18   1.0000      -0.874799       -23.8045
  19   1.0000      -0.792253       -21.5583
  20   1.0000      -0.754450       -20.5296
  21   1.0000      -0.727042       -19.7838
  22   1.0000      -0.713527       -19.4160
  23   1.0000      -0.663052       -18.0426
  24   1.0000      -0.611019       -16.6267
  25   1.0000      -0.598595       -16.2886
  26   1.0000      -0.580289       -15.7905
  27   1.0000      -0.548930       -14.9371
  28   1.0000      -0.536197       -14.5907
  29   1.0000      -0.486477       -13.2377
  30   1.0000      -0.476395       -12.9634
  31   1.0000      -0.470592       -12.8055
  32   1.0000      -0.467442       -12.7197
  33   1.0000      -0.455887       -12.4053
  34   1.0000      -0.454771       -12.3749
  35   1.0000      -0.445099       -12.1118
  36   1.0000      -0.428342       -11.6558
  37   1.0000      -0.423235       -11.5168
  38   1.0000      -0.417182       -11.3521
  39   1.0000      -0.407332       -11.0841
  40   1.0000      -0.399473       -10.8702
  41   1.0000      -0.390667       -10.6306
  42   1.0000      -0.384766       -10.4700
  43   1.0000      -0.372934       -10.1480
  44   1.0000      -0.367428        -9.9982
  45   1.0000      -0.357719        -9.7340
  46   1.0000      -0.351462        -9.5638
  47   1.0000      -0.339263        -9.2318
  48   1.0000      -0.327444        -8.9102
  49   1.0000      -0.271055        -7.3758
  50   1.0000      -0.269234        -7.3262
  51   1.0000      -0.248782        -6.7697
  52   1.0000      -0.245203        -6.6723
  53   1.0000      -0.236979        -6.4485
  54   0.0000      -0.044066        -1.1991
  55   0.0000       0.005413         0.1473
  56   0.0000       0.011557         0.3145
  57   0.0000       0.024634         0.6703
  58   0.0000       0.029191         0.7943

MULLIKEN ATOMIC CHARGES AND SPIN POPULATIONS
--------------------------------------------
   0 N :   -0.095327    0.004123
   1 C :   -0.150075    0.004516
   2 C :    0.103812    0.000791
   3 O :   -0.330027    0.001540
   4 C :   -0.273604   -0.061058
   5 C :   -0.081734    1.005974
   6 C :   -0.308606   -0.065342
   7 C :   -0.291487    0.010546
   8 N :   -0.458285    0.002069
   9 H :    0.143028    0.021111
  10 H :    0.169514    0.052321
  11 H :    0.157026   -0.000636
  12 H :    0.146090   -0.000861
  13 H :    0.209069   -0.000234
  14 H :    0.209903   -0.000015
  15 H :    0.250502    0.000125
  16 C :    0.172746   -0.001713
  17 N :   -0.110685    0.000421
  18 H :    0.235290    0.000551
  19 O :   -0.331266    0.001739
  20 C :   -0.553539    0.000405
  21 H :    0.184514    0.000020
  22 H :    0.185911   -0.000011
  23 H :    0.148442    0.000041
  24 C :   -0.438724    0.000011
  25 H :    0.183650   -0.000003
  26 H :    0.143023    0.000021
  27 H :    0.181490    0.000115
  28 H :    0.157136   -0.001493
  29 H :    0.126173    0.049847
  30 H :    0.185262    0.026019
  31 H :    0.130779   -0.050942
Sum of atomic charges         :   -0.0000000

LOEWDIN ATOMIC CHARGES AND SPIN POPULATIONS
-------------------------------------------
   0 N :    0.069248    0.003277
   1 C :   -0.046483    0.003491
   2 C :   -0.092885    0.000917
   3 O :   -0.190858    0.001602
   4 C :   -0.069302    0.007984
   5 C :   -0.051250    0.828746
   6 C :   -0.097249    0.007281
   7 C :   -0.056890    0.007931
   8 N :   -0.096978    0.001986
   9 H :    0.047952    0.017585
  10 H :    0.059045    0.043446
  11 H :    0.038504   -0.000138
  12 H :    0.025857   -0.000035
  13 H :    0.049314    0.000039
  14 H :    0.051344    0.000186
  15 H :    0.090713    0.000442
  16 C :   -0.103188   -0.000016
  17 N :    0.041491    0.000703
  18 H :    0.079368    0.000719
  19 O :   -0.201351    0.001678
  20 C :   -0.042653    0.000013
  21 H :    0.053829   -0.000016
  22 H :    0.054158   -0.000011
  23 H :    0.033566    0.000036
  24 C :    0.012204    0.000173
  25 H :    0.040620   -0.000008
  26 H :    0.032845    0.000013
  27 H :    0.040007    0.000037
  28 H :    0.065951   -0.000612
  29 H :    0.049840    0.040613
  30 H :    0.064686    0.023331
  31 H :    0.048543    0.008606

  Mayer bond orders larger than 0.100000
B(  0-N ,  1-C ) :   1.0252 B(  0-N , 15-H ) :   0.8932 B(  0-N , 16-C ) :   1.2146
B(  1-C ,  2-C ) :   0.9105 B(  1-C ,  4-C ) :   0.9263 B(  1-C , 19-O ) :   0.1391
B(  1-C , 28-H ) :   0.9750 B(  2-C ,  3-O ) :   1.8315 B(  2-C , 17-N ) :   1.2140
B(  4-C ,  5-C ) :   0.9776 B(  4-C , 29-H ) :   0.9601 B(  4-C , 30-H ) :   0.9580
B(  5-C ,  6-C ) :   0.9701 B(  5-C , 31-H ) :   0.9858 B(  6-C ,  7-C ) :   0.9651
B(  6-C ,  9-H ) :   0.9705 B(  6-C , 10-H ) :   0.9498 B(  7-C ,  8-N ) :   1.0142
B(  7-C , 11-H ) :   0.9613 B(  7-C , 12-H ) :   0.9409 B(  8-N , 13-H ) :   0.9443
B(  8-N , 14-H ) :   0.9481 B( 16-C , 19-O ) :   1.8533 B( 16-C , 20-C ) :   0.8928
B( 17-N , 18-H ) :   0.9352 B( 17-N , 24-C ) :   0.9649 B( 20-C , 21-H ) :   0.9595
B( 20-C , 22-H ) :   0.9590 B( 20-C , 23-H ) :   0.9759 B( 24-C , 25-H ) :   0.9516
B( 24-C , 26-H ) :   0.9672 B( 24-C , 27-H ) :   0.9507

FINAL SINGLE POINT ENERGY      -668.218282878905

DIPOLE MOMENT
-------------
                                X             Y             Z
Electronic contribution:     -9.65555       0.86248      -0.20903
Nuclear contribution   :      9.83682      -1.69221       0.13787
                        -----------------------------------------
Total Dipole Moment    :      0.18127      -0.82973      -0.07116
                        -----------------------------------------
Magnitude (a.u.)       :      0.85228
Magnitude (Debye)      :      2.16631

Rotational constants in cm-1:     0.019289     0.013532     0.009114
Rotational constants in MHz :   578.258761   405.675531   273.232390

                             ****ORCA TERMINATED NORMALLY****
TOTAL RUN TIME: 0 days 0 hours 6 minutes 35 seconds 368 msec
