                         Program Version 5.0.4 -  RELEASE  -
|  1> ! B3LYP EPR-II AUTOAUX
|  2> %pal nprocs 16 end
|  3> *XYZFile 1 2 opt.xyz
|  4> %EPRNMR
|  5>         GTENSOR   TRUE
|  6>         NUCLEI    = 1,4,9,10,11,12,13,14,15,16,17,18,19,20,22,23,24,25 {SHIFT, AISO, ADIP, AORB}
|  7>         ORI       GIAO
|  8> END
|  9>
| 10>                          ****END OF INPUT****

CARTESIAN COORDINATES (ANGSTROEM)
---------------------------------
  N     -7.687084    1.307546   -0.031709
  C     -6.415973    1.462620    0.499447
  C     -6.148160    0.373629    1.480449
  O     -7.029898   -0.477448    1.686798
  C     -5.505057    2.591217    0.111235
  C     -5.830587    3.937207    0.827596
  C     -5.166581    5.176028    0.175084
  C     -6.044092    5.937458   -0.828031
  N     -6.425828    5.100862   -2.033562
  H     -5.549734    2.709038   -0.975825
  H     -4.468060    2.317474    0.332172
  H     -5.497937    3.859581    1.866735
  H     -6.915356    4.079679    0.867908
  H     -4.211128    4.905040   -0.293959
  H     -4.917940    5.908935    0.949919
  H     -5.532324    6.827618   -1.201661
  H     -6.986567    6.244715   -0.368409
  H     -6.995911    5.644821   -2.685411
  H     -6.999933    4.241598   -1.753218
  H     -8.116830    0.467462    0.373191
  C     -8.401689    2.033731   -0.933640
  N     -4.947231    0.356317    2.122661
  H     -4.247960    1.046248    1.905192
  O     -7.980431    3.088699   -1.465178
  H     -5.595194    4.790442   -2.541925
  C     -4.622931   -0.695755    3.088714
  H     -4.663570   -1.680073    2.614724
  H     -3.616819   -0.518525    3.470906
  H     -5.333643   -0.684413    3.919037
  C     -9.772719    1.500064   -1.285796
  H     -9.796681    1.275620   -2.356808
  H    -10.043817    0.602926   -0.726547
  H    -10.514634    2.281947   -1.099455

 Total Charge           Charge          ....    1
 Multiplicity           Mult            ....    2
 Number of Electrons    NEL             ....  109
 Basis Dimension        Dim             ....  371

ORBITAL ENERGIES
----------------
                 SPIN UP ORBITALS
  NO   OCC          E(Eh)            E(eV)
   0   1.0000     -19.261037      -524.1195
   1   1.0000     -19.217736      -522.9412
   2   1.0000     -14.583483      -396.8367
   3   1.0000     -14.510471      -394.8500
   4   1.0000     -14.470733      -393.7687
   5   1.0000     -10.439481      -284.0727
   6   1.0000     -10.405460      -283.1470
   7   1.0000     -10.398094      -282.9465
   8   1.0000     -10.374294      -282.2989
   9   1.0000     -10.343556      -281.4625
  10   1.0000     -10.339350      -281.3480
  11   1.0000     -10.330307      -281.1019
  12   1.0000     -10.308978      -280.5216
  13   1.0000     -10.306221      -280.4465
  14   1.0000      -1.180385       -32.1199
  15   1.0000      -1.145653       -31.1748
  16   1.0000      -1.138177       -30.9714
  17   1.0000      -1.074062       -29.2267
  18   1.0000      -1.028060       -27.9749
  19   1.0000      -0.951301       -25.8862
  20   1.0000      -0.915885       -24.9225
  21   1.0000      -0.870083       -23.6762
  22   1.0000      -0.838751       -22.8236
  23   1.0000      -0.805757       -21.9258
  24   1.0000      -0.787241       -21.4219
  25   1.0000      -0.750506       -20.4223
  26   1.0000      -0.735636       -20.0177
  27   1.0000      -0.718020       -19.5383
  28   1.0000      -0.708214       -19.2715
  29   1.0000      -0.686833       -18.6897
  30   1.0000      -0.665606       -18.1121
  31   1.0000      -0.648832       -17.6556
  32   1.0000      -0.618026       -16.8173
  33   1.0000      -0.595620       -16.2076
  34   1.0000      -0.592038       -16.1102
  35   1.0000      -0.583627       -15.8813
  36   1.0000      -0.580596       -15.7988
  37   1.0000      -0.561090       -15.2680
  38   1.0000      -0.557088       -15.1591
  39   1.0000      -0.547871       -14.9083
  40   1.0000      -0.543120       -14.7791
  41   1.0000      -0.533304       -14.5119
  42   1.0000      -0.523568       -14.2470
  43   1.0000      -0.516008       -14.0413
  44   1.0000      -0.509409       -13.8617
  45   1.0000      -0.494152       -13.4465
  46   1.0000      -0.491961       -13.3869
  47   1.0000      -0.484330       -13.1793
  48   1.0000      -0.483316       -13.1517
  49   1.0000      -0.476173       -12.9573
  50   1.0000      -0.447668       -12.1817
  51   1.0000      -0.411528       -11.1983
  52   1.0000      -0.375800       -10.2260
  53   1.0000      -0.369870       -10.0647
  54   1.0000      -0.306423        -8.3382
  55   0.0000      -0.140863        -3.8331
  56   0.0000      -0.124221        -3.3802
  57   0.0000      -0.100577        -2.7368
  58   0.0000      -0.097225        -2.6456
  59   0.0000      -0.090306        -2.4574

                 SPIN DOWN ORBITALS
  NO   OCC          E(Eh)            E(eV)
   0   1.0000     -19.258615      -524.0536
   1   1.0000     -19.215604      -522.8832
   2   1.0000     -14.583492      -396.8370
   3   1.0000     -14.510209      -394.8429
   4   1.0000     -14.469175      -393.7263
   5   1.0000     -10.437882      -284.0292
   6   1.0000     -10.406258      -283.1687
   7   1.0000     -10.398095      -282.9465
   8   1.0000     -10.363628      -282.0087
   9   1.0000     -10.343471      -281.4602
  10   1.0000     -10.340033      -281.3666
  11   1.0000     -10.329323      -281.0752
  12   1.0000     -10.309049      -280.5235
  13   1.0000     -10.306367      -280.4505
  14   1.0000      -1.175599       -31.9897
  15   1.0000      -1.141995       -31.0753
  16   1.0000      -1.137706       -30.9586
  17   1.0000      -1.068351       -29.0713
  18   1.0000      -1.024582       -27.8803
  19   1.0000      -0.949038       -25.8246
  20   1.0000      -0.908930       -24.7332
  21   1.0000      -0.867461       -23.6048
  22   1.0000      -0.834280       -22.7019
  23   1.0000      -0.804917       -21.9029
  24   1.0000      -0.782732       -21.2992
  25   1.0000      -0.749473       -20.3942
  26   1.0000      -0.734520       -19.9873
  27   1.0000      -0.717365       -19.5205
  28   1.0000      -0.705986       -19.2109
  29   1.0000      -0.683939       -18.6109
  30   1.0000      -0.661683       -18.0053
  31   1.0000      -0.648056       -17.6345
  32   1.0000      -0.616395       -16.7730
  33   1.0000      -0.592569       -16.1246
  34   1.0000      -0.586483       -15.9590
  35   1.0000      -0.579350       -15.7649
  36   1.0000      -0.575113       -15.6496
  37   1.0000      -0.558740       -15.2041
  38   1.0000      -0.550756       -14.9868
  39   1.0000      -0.545629       -14.8473
  40   1.0000      -0.541216       -14.7272
  41   1.0000      -0.532227       -14.4826
  42   1.0000      -0.518647       -14.1131
  43   1.0000      -0.514879       -14.0106
  44   1.0000      -0.503356       -13.6970
  45   1.0000      -0.492155       -13.3922
  46   1.0000      -0.488650       -13.2968
  47   1.0000      -0.482043       -13.1171
  48   1.0000      -0.478437       -13.0189
  49   1.0000      -0.474063       -12.8999
  50   1.0000      -0.433220       -11.7885
  51   1.0000      -0.409250       -11.1362
  52   1.0000      -0.372126       -10.1261
  53   1.0000      -0.357647        -9.7321
  54   0.0000      -0.211207        -5.7472
  55   0.0000      -0.140623        -3.8265
  56   0.0000      -0.110028        -2.9940
  57   0.0000      -0.098412        -2.6779
  58   0.0000      -0.096752        -2.6328

MULLIKEN ATOMIC CHARGES AND SPIN POPULATIONS
--------------------------------------------
   0 N :    0.021200    0.004680
   1 C :    0.129844    0.693009
   2 C :    0.038278   -0.038944
   3 O :   -0.340854    0.080619
   4 C :   -0.345346   -0.039201
   5 C :   -0.249713    0.029806
   6 C :   -0.251990    0.003633
   7 C :   -0.278267    0.001881
   8 N :   -0.359344   -0.001055
   9 H :    0.141618    0.015480
  10 H :    0.136491    0.003567
  11 H :    0.163768   -0.000770
  12 H :    0.170668   -0.001680
  13 H :    0.166150    0.000056
  14 H :    0.173392    0.000373
  15 H :    0.194274    0.000581
  16 H :    0.207746   -0.000032
  17 H :    0.315732    0.000151
  18 H :    0.333924   -0.001197
  19 H :    0.269043   -0.001776
  20 C :    0.108304    0.092694
  21 N :   -0.109290    0.065693
  22 H :    0.226077   -0.002392
  23 O :   -0.321180    0.084994
  24 H :    0.306789    0.000466
  25 C :   -0.418962   -0.005568
  26 H :    0.194361    0.004702
  27 H :    0.149378    0.000055
  28 H :    0.193988    0.004106
  29 C :   -0.528259   -0.008430
  30 H :    0.197623    0.007434
  31 H :    0.169606   -0.000002
  32 H :    0.194951    0.007067
Sum of atomic charges         :    1.0000000

LOEWDIN ATOMIC CHARGES AND SPIN POPULATIONS
-------------------------------------------
   0 N :    0.152160    0.029796
   1 C :   -0.031974    0.565076
   2 C :   -0.107986    0.008352
   3 O :   -0.190951    0.077386
   4 C :   -0.059529    0.007796
   5 C :   -0.056061    0.033911
   6 C :   -0.063143    0.003796
   7 C :    0.010463    0.000659
   8 N :    0.315999   -0.000034
   9 H :    0.050084    0.012118
  10 H :    0.050150    0.002311
  11 H :    0.053750   -0.000104
  12 H :    0.054853    0.000186
  13 H :    0.055299    0.000116
  14 H :    0.063264    0.000586
  15 H :    0.053263    0.000276
  16 H :    0.060865    0.000059
  17 H :    0.113509    0.000034
  18 H :    0.092804   -0.000326
  19 H :    0.117040    0.000945
  20 C :   -0.060879    0.096092
  21 N :    0.051614    0.059723
  22 H :    0.074025    0.000614
  23 O :   -0.222155    0.082705
  24 H :    0.109935    0.000165
  25 C :    0.026928    0.000105
  26 H :    0.046123    0.003598
  27 H :    0.037248   -0.000036
  28 H :    0.046174    0.003197
  29 C :   -0.016857   -0.000197
  30 H :    0.064653    0.005856
  31 H :    0.046274   -0.000169
  32 H :    0.063057    0.005408

  Mayer bond orders larger than 0.100000
B(  0-N ,  1-C ) :   1.2314 B(  0-N , 19-H ) :   0.8446 B(  0-N , 20-C ) :   1.2988
B(  1-C ,  2-C ) :   1.0250 B(  1-C ,  4-C ) :   0.9714 B(  2-C ,  3-O ) :   1.7514
B(  2-C , 21-N ) :   1.2224 B(  4-C ,  5-C ) :   0.9530 B(  4-C ,  9-H ) :   0.9702
B(  4-C , 10-H ) :   0.9775 B(  5-C ,  6-C ) :   0.9662 B(  5-C , 11-H ) :   0.9619
B(  5-C , 12-H ) :   0.9663 B(  6-C ,  7-C ) :   0.9880 B(  6-C , 13-H ) :   0.9587
B(  6-C , 14-H ) :   0.9518 B(  7-C ,  8-N ) :   0.9304 B(  7-C , 15-H ) :   0.9499
B(  7-C , 16-H ) :   0.9450 B(  8-N , 17-H ) :   0.9008 B(  8-N , 18-H ) :   0.7188
B(  8-N , 24-H ) :   0.9022 B( 18-H , 23-O ) :   0.1817 B( 20-C , 23-O ) :   1.6808
B( 20-C , 29-C ) :   0.9313 B( 21-N , 22-H ) :   0.9329 B( 21-N , 25-C ) :   0.9575
B( 25-C , 26-H ) :   0.9478 B( 25-C , 27-H ) :   0.9638 B( 25-C , 28-H ) :   0.9470
B( 29-C , 30-H ) :   0.9429 B( 29-C , 31-H ) :   0.9661 B( 29-C , 32-H ) :   0.9453

FINAL SINGLE POINT ENERGY      -668.641075766577

DIPOLE MOMENT
-------------
                                X             Y             Z
Electronic contribution:     -3.47873      -6.70841      -0.24869
Nuclear contribution   :      4.61685      10.25266      -1.77712
                        -----------------------------------------
Total Dipole Moment    :      1.13812       3.54425      -2.02581
                        -----------------------------------------
Magnitude (a.u.)       :      4.23803
Magnitude (Debye)      :     10.77223

Rotational constants in cm-1:     0.028067     0.013892     0.009708
Rotational constants in MHz :   841.420139   416.458550   291.040607

CHEMICAL SHIELDING SUMMARY (ppm)  --  Orbital contribution
----------------------------------------------------------

  Nucleus  Element    Isotropic     Anisotropy
  -------  -------  ------------   ------------
      0       N           79.369        144.000
      3       O          -26.966        600.458
      8       N          211.399         14.834
      9       H           29.233          4.130
     10       H           29.559          7.301
     11       H           29.772          7.330
     12       H           30.280          4.010
     13       H           30.332          6.848
     14       H           29.671          9.920
     15       H           28.478          9.080
     16       H           28.611          7.165
     17       H           28.115         15.437
     18       H           18.151         28.480
     19       H           21.266          9.613
     21       N          150.904         84.507
     22       H           26.835          7.732
     23       O           -5.826        467.589
     24       H           28.733         11.351

                             ****ORCA TERMINATED NORMALLY****
TOTAL RUN TIME: 0 days 0 hours 9 minutes 25 seconds 198 msec
