                         Program Version 5.0.4 -  RELEASE  -
|  1> ! M062X def2-TZVP OPT FREQ
|  2> %pal nprocs 16 end
|  3> *XYZFile 1 2 opt.xyz
|  4>
|  5>                          ****END OF INPUT****
 Total Charge           Charge          ....    1
 Multiplicity           Mult            ....    2
 Number of Electrons    NEL             ....  109
FINAL SINGLE POINT ENERGY      -668.856768210866
FINAL SINGLE POINT ENERGY      -668.855993439115
FINAL SINGLE POINT ENERGY      -668.845260949245
FINAL SINGLE POINT ENERGY      -668.857056027766
FINAL SINGLE POINT ENERGY      -668.856294823929
FINAL SINGLE POINT ENERGY      -668.859774417753
FINAL SINGLE POINT ENERGY      -668.859595417226
FINAL SINGLE POINT ENERGY      -668.860097369268
FINAL SINGLE POINT ENERGY      -668.860107743937
FINAL SINGLE POINT ENERGY      -668.860105936536
FINAL SINGLE POINT ENERGY      -668.860076522299
FINAL SINGLE POINT ENERGY      -668.860073355963
FINAL SINGLE POINT ENERGY      -668.860063240008
FINAL SINGLE POINT ENERGY      -668.860069149610
FINAL SINGLE POINT ENERGY      -668.860067615103
FINAL SINGLE POINT ENERGY      -668.860071268937
                    ***********************HURRAY********************

CARTESIAN COORDINATES (ANGSTROEM)
---------------------------------
  N     -7.702902    1.283404   -0.059947
  C     -6.437916    1.452272    0.451620
  C     -6.120278    0.377277    1.412405
  O     -6.923039   -0.534198    1.577710
  C     -5.551069    2.578163    0.055861
  C     -5.862085    3.893171    0.797405
  C     -5.148356    5.113696    0.202733
  C     -5.981925    5.891654   -0.800414
  N     -6.384504    5.041238   -1.969187
  H     -5.616137    2.707764   -1.025961
  H     -4.512800    2.300378    0.247182
  H     -5.568079    3.771073    1.840545
  H     -6.941152    4.063389    0.805962
  H     -4.196551    4.819378   -0.251437
  H     -4.896862    5.823038    0.992145
  H     -5.440188    6.751530   -1.190516
  H     -6.910642    6.238699   -0.348885
  H     -6.938769    5.575130   -2.639513
  H     -6.985668    4.212304   -1.659326
  H     -8.118724    0.421664    0.298185
  C     -8.437479    2.053602   -0.888506
  N     -4.951135    0.440597    2.081286
  H     -4.340963    1.228835    1.968315
  O     -8.043780    3.137301   -1.342429
  H     -5.564445    4.687335   -2.462711
  C     -4.617635   -0.582771    3.058457
  H     -4.530686   -1.554184    2.573688
  H     -3.671701   -0.324245    3.525457
  H     -5.395761   -0.648739    3.817918
  C     -9.793712    1.531586   -1.254633
  H     -9.794881    1.292388   -2.318999
  H    -10.076934    0.647447   -0.689125
  H    -10.525543    2.322132   -1.094650

 Multiplicity           Mult            ....    2
 Number of Electrons    NEL             ....  109
 Basis Dimension        Dim             ....  548

ORBITAL ENERGIES
----------------
                 SPIN UP ORBITALS
  NO   OCC          E(Eh)            E(eV)
   0   1.0000     -19.750832      -537.4475
   1   1.0000     -19.700976      -536.0908
   2   1.0000     -15.003388      -408.2629
   3   1.0000     -14.930346      -406.2754
   4   1.0000     -14.884425      -405.0258
   5   1.0000     -10.794592      -293.7358
   6   1.0000     -10.754643      -292.6487
   7   1.0000     -10.749982      -292.5219
   8   1.0000     -10.725481      -291.8552
   9   1.0000     -10.693390      -290.9819
  10   1.0000     -10.691419      -290.9283
  11   1.0000     -10.682039      -290.6731
  12   1.0000     -10.661057      -290.1021
  13   1.0000     -10.659632      -290.0633
  14   1.0000      -1.318349       -35.8741
  15   1.0000      -1.279709       -34.8227
  16   1.0000      -1.254509       -34.1369
  17   1.0000      -1.195735       -32.5376
  18   1.0000      -1.144891       -31.1541
  19   1.0000      -1.062638       -28.9159
  20   1.0000      -1.022750       -27.8305
  21   1.0000      -0.973259       -26.4837
  22   1.0000      -0.939603       -25.5679
  23   1.0000      -0.900603       -24.5067
  24   1.0000      -0.880790       -23.9675
  25   1.0000      -0.839643       -22.8479
  26   1.0000      -0.823554       -22.4101
  27   1.0000      -0.799688       -21.7606
  28   1.0000      -0.794791       -21.6274
  29   1.0000      -0.776383       -21.1265
  30   1.0000      -0.751560       -20.4510
  31   1.0000      -0.728899       -19.8343
  32   1.0000      -0.700498       -19.0615
  33   1.0000      -0.682431       -18.5699
  34   1.0000      -0.672588       -18.3020
  35   1.0000      -0.663419       -18.0526
  36   1.0000      -0.658801       -17.9269
  37   1.0000      -0.644495       -17.5376
  38   1.0000      -0.636543       -17.3212
  39   1.0000      -0.625651       -17.0248
  40   1.0000      -0.618041       -16.8178
  41   1.0000      -0.605238       -16.4694
  42   1.0000      -0.597361       -16.2550
  43   1.0000      -0.587765       -15.9939
  44   1.0000      -0.583448       -15.8764
  45   1.0000      -0.568540       -15.4708
  46   1.0000      -0.559484       -15.2243
  47   1.0000      -0.554822       -15.0975
  48   1.0000      -0.550478       -14.9793
  49   1.0000      -0.540922       -14.7192
  50   1.0000      -0.524086       -14.2611
  51   1.0000      -0.493467       -13.4279
  52   1.0000      -0.457232       -12.4419
  53   1.0000      -0.438707       -11.9378
  54   1.0000      -0.358932        -9.7670
  55   0.0000      -0.111321        -3.0292
  56   0.0000      -0.087895        -2.3918
  57   0.0000      -0.064931        -1.7669
  58   0.0000      -0.063426        -1.7259
  59   0.0000      -0.052362        -1.4248

                 SPIN DOWN ORBITALS
  NO   OCC          E(Eh)            E(eV)
   0   1.0000     -19.749051      -537.3990
   1   1.0000     -19.699355      -536.0467
   2   1.0000     -15.003392      -408.2631
   3   1.0000     -14.930346      -406.2754
   4   1.0000     -14.883431      -404.9988
   5   1.0000     -10.794213      -293.7255
   6   1.0000     -10.755257      -292.6654
   7   1.0000     -10.749983      -292.5219
   8   1.0000     -10.720105      -291.7089
   9   1.0000     -10.693335      -290.9805
  10   1.0000     -10.691954      -290.9429
  11   1.0000     -10.681294      -290.6528
  12   1.0000     -10.661099      -290.1032
  13   1.0000     -10.659720      -290.0657
  14   1.0000      -1.313308       -35.7369
  15   1.0000      -1.275287       -34.7023
  16   1.0000      -1.254416       -34.1344
  17   1.0000      -1.189123       -32.3577
  18   1.0000      -1.141044       -31.0494
  19   1.0000      -1.059773       -28.8379
  20   1.0000      -1.015217       -27.6255
  21   1.0000      -0.970654       -26.4128
  22   1.0000      -0.934123       -25.4188
  23   1.0000      -0.899380       -24.4734
  24   1.0000      -0.875314       -23.8185
  25   1.0000      -0.838189       -22.8083
  26   1.0000      -0.821775       -22.3616
  27   1.0000      -0.798665       -21.7328
  28   1.0000      -0.792807       -21.5734
  29   1.0000      -0.772044       -21.0084
  30   1.0000      -0.747098       -20.3296
  31   1.0000      -0.727195       -19.7880
  32   1.0000      -0.698290       -19.0014
  33   1.0000      -0.670865       -18.2552
  34   1.0000      -0.668564       -18.1926
  35   1.0000      -0.658693       -17.9239
  36   1.0000      -0.656386       -17.8612
  37   1.0000      -0.637592       -17.3498
  38   1.0000      -0.631746       -17.1907
  39   1.0000      -0.623058       -16.9543
  40   1.0000      -0.615317       -16.7436
  41   1.0000      -0.603669       -16.4267
  42   1.0000      -0.591901       -16.1065
  43   1.0000      -0.586057       -15.9474
  44   1.0000      -0.576825       -15.6962
  45   1.0000      -0.560415       -15.2497
  46   1.0000      -0.558674       -15.2023
  47   1.0000      -0.549567       -14.9545
  48   1.0000      -0.548137       -14.9156
  49   1.0000      -0.539201       -14.6724
  50   1.0000      -0.506801       -13.7908
  51   1.0000      -0.490800       -13.3554
  52   1.0000      -0.452526       -12.3139
  53   1.0000      -0.423462       -11.5230
  54   0.0000      -0.178688        -4.8623
  55   0.0000      -0.111532        -3.0349
  56   0.0000      -0.071980        -1.9587
  57   0.0000      -0.064575        -1.7572
  58   0.0000      -0.063180        -1.7192

MULLIKEN ATOMIC CHARGES AND SPIN POPULATIONS
--------------------------------------------
   0 N :   -0.293698   -0.001255
   1 C :    0.127996    0.742161
   2 C :    0.403893   -0.052632
   3 O :   -0.428615    0.083642
   4 C :   -0.525683   -0.052739
   5 C :   -0.301896    0.016217
   6 C :   -0.309997    0.010731
   7 C :   -0.245928   -0.000224
   8 N :   -0.381898    0.000886
   9 H :    0.185274    0.016549
  10 H :    0.185321    0.005823
  11 H :    0.182111   -0.000373
  12 H :    0.210020   -0.000945
  13 H :    0.197918   -0.001504
  14 H :    0.193453    0.000166
  15 H :    0.203326    0.000705
  16 H :    0.219428    0.000027
  17 H :    0.323463    0.000129
  18 H :    0.360233   -0.002690
  19 H :    0.296891   -0.002326
  20 C :    0.481489    0.083875
  21 N :   -0.363040    0.061786
  22 H :    0.243116   -0.002810
  23 O :   -0.546564    0.088121
  24 H :    0.312635    0.000162
  25 C :   -0.286544   -0.005402
  26 H :    0.171314    0.004022
  27 H :    0.146909   -0.000015
  28 H :    0.170154    0.003292
  29 C :   -0.445195   -0.009321
  30 H :    0.178102    0.007416
  31 H :    0.160510    0.000540
  32 H :    0.175498    0.005989
Sum of atomic charges         :    1.0000000

LOEWDIN ATOMIC CHARGES AND SPIN POPULATIONS
-------------------------------------------
   0 N :    0.223963    0.051183
   1 C :   -0.128866    0.508743
   2 C :   -0.460069    0.051368
   3 O :    0.055683    0.070265
   4 C :   -0.250934    0.045003
   5 C :   -0.251569    0.028543
   6 C :   -0.262274    0.004504
   7 C :   -0.258844    0.000559
   8 N :    0.136567    0.000080
   9 H :    0.143708    0.009389
  10 H :    0.151479    0.002225
  11 H :    0.149492    0.000046
  12 H :    0.148814    0.000641
  13 H :    0.149899   -0.000009
  14 H :    0.162738    0.000315
  15 H :    0.147338    0.000297
  16 H :    0.152770    0.000103
  17 H :    0.208184    0.000027
  18 H :    0.183675   -0.000362
  19 H :    0.229847    0.000540
  20 C :   -0.413593    0.082746
  21 N :    0.105630    0.045532
  22 H :    0.180871    0.000179
  23 O :    0.004024    0.075394
  24 H :    0.202361    0.000253
  25 C :   -0.285930    0.004053
  26 H :    0.128042    0.002411
  27 H :    0.122236   -0.000050
  28 H :    0.127469    0.002066
  29 C :   -0.238149    0.006155
  30 H :    0.150903    0.004475
  31 H :    0.136235   -0.000101
  32 H :    0.148298    0.003425

  Mayer bond orders larger than 0.100000
B(  0-N ,  1-C ) :   1.1224 B(  0-N , 19-H ) :   0.8502 B(  0-N , 20-C ) :   1.2564
B(  1-C ,  2-C ) :   1.1180 B(  1-C ,  4-C ) :   0.8485 B(  2-C ,  3-O ) :   1.7941
B(  2-C , 21-N ) :   1.2372 B(  4-C ,  5-C ) :   0.8034 B(  4-C ,  9-H ) :   1.0256
B(  4-C , 10-H ) :   0.9722 B(  5-C ,  6-C ) :   0.8482 B(  5-C , 11-H ) :   0.9577
B(  5-C , 12-H ) :   0.9921 B(  6-C ,  7-C ) :   0.9331 B(  6-C , 13-H ) :   0.9780
B(  6-C , 14-H ) :   0.9712 B(  7-C ,  8-N ) :   0.8250 B(  7-C , 15-H ) :   0.9721
B(  7-C , 16-H ) :   0.9691 B(  8-N , 17-H ) :   0.8892 B(  8-N , 18-H ) :   0.7518
B(  8-N , 24-H ) :   0.8861 B( 18-H , 23-O ) :   0.1587 B( 20-C , 23-O ) :   1.5904
B( 20-C , 29-C ) :   0.9230 B( 21-N , 22-H ) :   0.9170 B( 21-N , 25-C ) :   0.9061
B( 25-C , 26-H ) :   0.9670 B( 25-C , 27-H ) :   0.9606 B( 25-C , 28-H ) :   0.9680
B( 29-C , 30-H ) :   0.9360 B( 29-C , 31-H ) :   0.9929 B( 29-C , 32-H ) :   0.9511

FINAL SINGLE POINT ENERGY      -668.860074662414

DIPOLE MOMENT
-------------
                                X             Y             Z
Electronic contribution:     -3.54645      -6.72758      -0.38351
Nuclear contribution   :      4.55538      10.28441      -1.60522
                        -----------------------------------------
Total Dipole Moment    :      1.00893       3.55684      -1.98873
                        -----------------------------------------
Magnitude (a.u.)       :      4.19810
Magnitude (Debye)      :     10.67073

VIBRATIONAL FREQUENCIES
-----------------------

Scaling factor for frequencies =  1.000000000  (already applied!)

   0:         0.00 cm**-1
   1:         0.00 cm**-1
   2:         0.00 cm**-1
   3:         0.00 cm**-1
   4:         0.00 cm**-1
   5:         0.00 cm**-1
   6:        14.54 cm**-1
   7:        44.24 cm**-1
   8:        77.70 cm**-1
   9:        91.58 cm**-1
  10:        96.47 cm**-1
  11:       104.00 cm**-1
  12:       128.48 cm**-1
  13:       135.53 cm**-1
  14:       153.88 cm**-1
  15:       172.16 cm**-1
  16:       221.88 cm**-1
  17:       245.78 cm**-1
  18:       260.11 cm**-1
  19:       280.50 cm**-1
  20:       283.31 cm**-1
  21:       308.25 cm**-1
  22:       314.97 cm**-1
  23:       374.20 cm**-1
  24:       389.28 cm**-1
  25:       400.13 cm**-1
  26:       430.77 cm**-1
  27:       490.58 cm**-1
  28:       544.50 cm**-1
  29:       612.63 cm**-1
  30:       628.99 cm**-1
  31:       720.48 cm**-1
  32:       743.33 cm**-1
  33:       762.13 cm**-1
  34:       828.47 cm**-1
  35:       854.39 cm**-1
  36:       860.99 cm**-1
  37:       880.29 cm**-1
  38:       917.36 cm**-1
  39:       954.58 cm**-1
  40:       974.05 cm**-1
  41:      1009.19 cm**-1
  42:      1037.46 cm**-1
  43:      1054.46 cm**-1
  44:      1063.76 cm**-1
  45:      1067.56 cm**-1
  46:      1084.55 cm**-1
  47:      1110.55 cm**-1
  48:      1140.96 cm**-1
  49:      1156.79 cm**-1
  50:      1187.18 cm**-1
  51:      1188.21 cm**-1
  52:      1237.61 cm**-1
  53:      1276.68 cm**-1
  54:      1279.46 cm**-1
  55:      1311.18 cm**-1
  56:      1320.24 cm**-1
  57:      1350.75 cm**-1
  58:      1361.13 cm**-1
  59:      1375.12 cm**-1
  60:      1398.00 cm**-1
  61:      1413.95 cm**-1
  62:      1417.35 cm**-1
  63:      1427.52 cm**-1
  64:      1460.68 cm**-1
  65:      1472.20 cm**-1
  66:      1482.24 cm**-1
  67:      1485.19 cm**-1
  68:      1494.52 cm**-1
  69:      1497.20 cm**-1
  70:      1506.15 cm**-1
  71:      1510.99 cm**-1
  72:      1513.65 cm**-1
  73:      1556.11 cm**-1
  74:      1559.47 cm**-1
  75:      1590.92 cm**-1
  76:      1651.80 cm**-1
  77:      1678.70 cm**-1
  78:      1685.98 cm**-1
  79:      1737.08 cm**-1
  80:      2594.30 cm**-1
  81:      3065.01 cm**-1
  82:      3084.68 cm**-1
  83:      3088.16 cm**-1
  84:      3089.24 cm**-1
  85:      3094.43 cm**-1
  86:      3113.49 cm**-1
  87:      3120.42 cm**-1
  88:      3133.52 cm**-1
  89:      3140.73 cm**-1
  90:      3159.08 cm**-1
  91:      3165.00 cm**-1
  92:      3172.48 cm**-1
  93:      3195.69 cm**-1
  94:      3196.27 cm**-1
  95:      3448.37 cm**-1
  96:      3464.21 cm**-1
  97:      3526.99 cm**-1
  98:      3694.11 cm**-1

IR SPECTRUM
-----------

 Mode   freq       eps      Int      T**2         TX        TY        TZ
       cm**-1   L/(mol*cm) km/mol    a.u.
----------------------------------------------------------------------------
  6:     14.54   0.001647    8.32  0.035348  (-0.125861  0.074400  0.118203)
  7:     44.24   0.000604    3.05  0.004260  ( 0.049720 -0.038129 -0.018283)
  8:     77.70   0.001143    5.77  0.004589  (-0.023398  0.034408  0.053455)
  9:     91.58   0.001500    7.58  0.005112  ( 0.048017 -0.036213 -0.038667)
 10:     96.47   0.001780    9.00  0.005759  (-0.022312  0.057694  0.043961)
 11:    104.00   0.002331   11.78  0.006995  ( 0.025698 -0.062139 -0.049728)
 12:    128.48   0.000081    0.41  0.000197  ( 0.001462 -0.004642  0.013173)
 13:    135.53   0.001678    8.48  0.003864  ( 0.032471 -0.037830  0.037124)
 14:    153.88   0.003911   19.76  0.007930  ( 0.016787 -0.061857  0.061824)
 15:    172.16   0.001353    6.84  0.002453  ( 0.030357 -0.017718 -0.034886)
 16:    221.88   0.003397   17.17  0.004778  ( 0.043700  0.051063 -0.016135)
 17:    245.78   0.012744   64.40  0.016181  (-0.050521 -0.106258  0.048352)
 18:    260.11   0.002483   12.55  0.002979  (-0.044369  0.021786 -0.023154)
 19:    280.50   0.005184   26.20  0.005767  ( 0.036219 -0.018578 -0.064113)
 20:    283.31   0.002672   13.51  0.002944  ( 0.044674 -0.029461 -0.008945)
 21:    308.25   0.002478   12.52  0.002509  (-0.032776  0.033904  0.016885)
 22:    314.97   0.000061    0.31  0.000060  ( 0.001810 -0.006025  0.004562)
 23:    374.20   0.005202   26.29  0.004338  (-0.001477 -0.042458  0.050329)
 24:    389.28   0.000101    0.51  0.000081  ( 0.005012 -0.006881  0.002976)
 25:    400.13   0.001567    7.92  0.001222  ( 0.022102  0.021882  0.015954)
 26:    430.77   0.001002    5.06  0.000726  ( 0.013582 -0.018636 -0.013923)
 27:    490.58   0.000338    1.71  0.000215  (-0.009803  0.009104 -0.005999)
 28:    544.50   0.009056   45.76  0.005190  (-0.060735 -0.038327 -0.005680)
 29:    612.63   0.001295    6.55  0.000660  ( 0.009556 -0.002076  0.023753)
 30:    628.99   0.001207    6.10  0.000599  ( 0.019042 -0.015360 -0.000408)
 31:    720.48   0.000971    4.91  0.000420  ( 0.015312  0.010639  0.008534)
 32:    743.33   0.000771    3.89  0.000324  ( 0.009320 -0.007927 -0.013185)
 33:    762.13   0.000966    4.88  0.000395  ( 0.003224  0.001933  0.019525)
 34:    828.47   0.001006    5.08  0.000379  ( 0.011334 -0.014138  0.007115)
 35:    854.39   0.000906    4.58  0.000331  ( 0.015269  0.000763 -0.009867)
 36:    860.99   0.008533   43.12  0.003093  ( 0.020152 -0.032141 -0.040667)
 37:    880.29   0.001662    8.40  0.000589  (-0.002930 -0.020670  0.012381)
 38:    917.36   0.001266    6.40  0.000431  (-0.009454  0.001418 -0.018419)
 39:    954.58   0.001607    8.12  0.000525  (-0.016097  0.004369 -0.015720)
 40:    974.05   0.001225    6.19  0.000393  ( 0.016367 -0.011100 -0.001240)
 41:   1009.19   0.002378   12.02  0.000735  ( 0.007475  0.021353 -0.014949)
 42:   1037.46   0.003096   15.64  0.000931  (-0.008446  0.016757 -0.024063)
 43:   1054.46   0.003548   17.93  0.001050  ( 0.001916  0.024828 -0.020731)
 44:   1063.76   0.001936    9.78  0.000568  ( 0.000349 -0.018835 -0.014595)
 45:   1067.56   0.002346   11.86  0.000686  ( 0.015349 -0.014363  0.015618)
 46:   1084.55   0.001723    8.71  0.000496  (-0.008729 -0.011054 -0.017247)
 47:   1110.55   0.000674    3.41  0.000189  (-0.007076  0.010049 -0.006200)
 48:   1140.96   0.001887    9.54  0.000516  ( 0.009061 -0.020085  0.005542)
 49:   1156.79   0.000008    0.04  0.000002  (-0.000817 -0.001047  0.000560)
 50:   1187.18   0.000485    2.45  0.000127  ( 0.005274 -0.008345  0.005477)
 51:   1188.21   0.000314    1.58  0.000082  (-0.009008  0.000573 -0.000935)
 52:   1237.61   0.001491    7.54  0.000376  ( 0.007797 -0.013053  0.012033)
 53:   1276.68   0.016697   84.38  0.004081  ( 0.017215 -0.049820  0.036095)
 54:   1279.46   0.000696    3.52  0.000170  ( 0.000590  0.007750 -0.010457)
 55:   1311.18   0.002754   13.92  0.000656  (-0.007676  0.016658 -0.017864)
 56:   1320.24   0.007147   36.12  0.001689  ( 0.020659 -0.027064  0.023025)
 57:   1350.75   0.000526    2.66  0.000122  (-0.009363  0.004829 -0.003248)
 58:   1361.13   0.021233  107.30  0.004868  (-0.039552  0.037384 -0.043660)
 59:   1375.12   0.000446    2.26  0.000101  (-0.007829 -0.005533 -0.003067)
 60:   1398.00   0.000664    3.35  0.000148  (-0.005533  0.005476 -0.009358)
 61:   1413.95   0.000653    3.30  0.000144  ( 0.003031 -0.009549  0.006617)
 62:   1417.35   0.007658   38.70  0.001686  ( 0.030972 -0.010954  0.024634)
 63:   1427.52   0.001687    8.53  0.000369  (-0.014521 -0.009575 -0.008141)
 64:   1460.68   0.005072   25.63  0.001084  ( 0.026663 -0.008601  0.017285)
 65:   1472.20   0.003023   15.28  0.000641  ( 0.008619 -0.022834 -0.006723)
 66:   1482.24   0.002445   12.36  0.000515  ( 0.010131 -0.009976 -0.017680)
 67:   1485.19   0.003020   15.26  0.000635  ( 0.017966  0.017611  0.001283)
 68:   1494.52   0.010300   52.05  0.002151  ( 0.001967 -0.036690  0.028295)
 69:   1497.20   0.002733   13.81  0.000570  (-0.006336  0.022020 -0.006683)
 70:   1506.15   0.006996   35.36  0.001450  ( 0.001549 -0.023439  0.029963)
 71:   1510.99   0.004018   20.31  0.000830  (-0.010739 -0.001800  0.026670)
 72:   1513.65   0.004696   23.73  0.000968  ( 0.017044 -0.021893  0.014083)
 73:   1556.11   0.013308   67.25  0.002669  ( 0.005217 -0.044626 -0.025497)
 74:   1559.47   0.152388  770.10  0.030494  (-0.112849  0.067423 -0.114949)
 75:   1590.92   0.013794   69.71  0.002706  ( 0.046120  0.007452  0.022871)
 76:   1651.80   0.004899   24.76  0.000926  (-0.012970 -0.008688  0.026113)
 77:   1678.70   0.046334  234.15  0.008613  (-0.049815 -0.070981  0.033068)
 78:   1685.98   0.120386  608.38  0.022283  ( 0.021289  0.133347 -0.063623)
 79:   1737.08   0.020358  102.88  0.003657  ( 0.052446  0.025303  0.016324)
 80:   2594.30   0.366896  1854.14  0.044133  ( 0.098061  0.176276 -0.058686)
 81:   3065.01   0.001182    5.97  0.000120  ( 0.009998  0.001732 -0.004169)
 82:   3084.68   0.000141    0.71  0.000014  ( 0.002418  0.002695  0.001067)
 83:   3088.16   0.003503   17.70  0.000354  ( 0.008329 -0.010624  0.013105)
 84:   3089.24   0.000118    0.59  0.000012  (-0.002581  0.000173 -0.002280)
 85:   3094.43   0.004322   21.84  0.000436  ( 0.015766  0.002960 -0.013362)
 86:   3113.49   0.000270    1.36  0.000027  ( 0.002299 -0.004586  0.000869)
 87:   3120.42   0.000556    2.81  0.000056  (-0.002031 -0.001896  0.006922)
 88:   3133.52   0.000892    4.51  0.000089  ( 0.005160 -0.007736  0.001551)
 89:   3140.73   0.001991   10.06  0.000198  (-0.006846  0.004309 -0.011505)
 90:   3159.08   0.000851    4.30  0.000084  (-0.004853  0.005060  0.005906)
 91:   3165.00   0.000082    0.41  0.000008  (-0.000767 -0.002179 -0.001645)
 92:   3172.48   0.000341    1.72  0.000033  (-0.003551 -0.003833  0.002489)
 93:   3195.69   0.000216    1.09  0.000021  ( 0.002856  0.003460 -0.000987)
 94:   3196.27   0.000819    4.14  0.000080  (-0.007873 -0.002559 -0.003382)
 95:   3448.37   0.035262  178.20  0.003191  (-0.000648 -0.047107  0.031171)
 96:   3464.21   0.014132   71.42  0.001273  (-0.005049 -0.013711  0.032550)
 97:   3526.99   0.015151   76.56  0.001340  ( 0.030127 -0.019843  0.006255)
 98:   3694.11   0.009014   45.55  0.000761  ( 0.023206  0.013972  0.005270)

--------------------------
THERMOCHEMISTRY AT 298.15K
--------------------------

Temperature         ... 298.15 K
Pressure            ... 1.00 atm
Total Mass          ... 201.27 AMU

Throughout the following assumptions are being made:
  (1) The electronic state is orbitally nondegenerate
      but the spin degeneracy is treated
  (2) There are no thermally accessible electronically excited states
  (3) Hindered rotations indicated by low frequency modes are not
      treated as such but are treated as vibrations and this may
      cause some error
  (4) All equations used are the standard statistical mechanics
      equations for an ideal gas
  (5) All vibrations are strictly harmonic

freq.      14.54  E(vib)   ...       0.57
freq.      44.24  E(vib)   ...       0.53
freq.      77.70  E(vib)   ...       0.49
freq.      91.58  E(vib)   ...       0.47
freq.      96.47  E(vib)   ...       0.47
freq.     104.00  E(vib)   ...       0.46
freq.     128.48  E(vib)   ...       0.43
freq.     135.53  E(vib)   ...       0.42
freq.     153.88  E(vib)   ...       0.40
freq.     172.16  E(vib)   ...       0.38
freq.     221.88  E(vib)   ...       0.33
freq.     245.78  E(vib)   ...       0.31
freq.     260.11  E(vib)   ...       0.30
freq.     280.50  E(vib)   ...       0.28
freq.     283.31  E(vib)   ...       0.28
freq.     308.25  E(vib)   ...       0.26
freq.     314.97  E(vib)   ...       0.25
freq.     374.20  E(vib)   ...       0.21
freq.     389.28  E(vib)   ...       0.20
freq.     400.13  E(vib)   ...       0.19
freq.     430.77  E(vib)   ...       0.18
freq.     490.58  E(vib)   ...       0.15
freq.     544.50  E(vib)   ...       0.12
freq.     612.63  E(vib)   ...       0.10
freq.     628.99  E(vib)   ...       0.09
freq.     720.48  E(vib)   ...       0.07
freq.     743.33  E(vib)   ...       0.06
freq.     762.13  E(vib)   ...       0.06
freq.     828.47  E(vib)   ...       0.04
freq.     854.39  E(vib)   ...       0.04
freq.     860.99  E(vib)   ...       0.04
freq.     880.29  E(vib)   ...       0.04
freq.     917.36  E(vib)   ...       0.03
freq.     954.58  E(vib)   ...       0.03
freq.     974.05  E(vib)   ...       0.03
freq.    1009.19  E(vib)   ...       0.02
freq.    1037.46  E(vib)   ...       0.02
freq.    1054.46  E(vib)   ...       0.02
freq.    1063.76  E(vib)   ...       0.02
freq.    1067.56  E(vib)   ...       0.02
freq.    1084.55  E(vib)   ...       0.02
freq.    1110.55  E(vib)   ...       0.02
freq.    1140.96  E(vib)   ...       0.01
freq.    1156.79  E(vib)   ...       0.01
freq.    1187.18  E(vib)   ...       0.01
freq.    1188.21  E(vib)   ...       0.01
freq.    1237.61  E(vib)   ...       0.01
freq.    1276.68  E(vib)   ...       0.01
freq.    1279.46  E(vib)   ...       0.01
freq.    1311.18  E(vib)   ...       0.01
freq.    1320.24  E(vib)   ...       0.01
freq.    1350.75  E(vib)   ...       0.01
freq.    1361.13  E(vib)   ...       0.01
freq.    1375.12  E(vib)   ...       0.01
freq.    1398.00  E(vib)   ...       0.00
freq.    1413.95  E(vib)   ...       0.00
freq.    1417.35  E(vib)   ...       0.00
freq.    1427.52  E(vib)   ...       0.00
freq.    1460.68  E(vib)   ...       0.00
freq.    1472.20  E(vib)   ...       0.00
freq.    1482.24  E(vib)   ...       0.00
freq.    1485.19  E(vib)   ...       0.00
freq.    1494.52  E(vib)   ...       0.00
freq.    1497.20  E(vib)   ...       0.00
freq.    1506.15  E(vib)   ...       0.00
freq.    1510.99  E(vib)   ...       0.00
freq.    1513.65  E(vib)   ...       0.00
freq.    1556.11  E(vib)   ...       0.00
freq.    1559.47  E(vib)   ...       0.00
freq.    1590.92  E(vib)   ...       0.00
freq.    1651.80  E(vib)   ...       0.00
freq.    1678.70  E(vib)   ...       0.00
freq.    1685.98  E(vib)   ...       0.00
freq.    1737.08  E(vib)   ...       0.00
freq.    2594.30  E(vib)   ...       0.00
freq.    3065.01  E(vib)   ...       0.00
freq.    3084.68  E(vib)   ...       0.00
freq.    3088.16  E(vib)   ...       0.00
freq.    3089.24  E(vib)   ...       0.00
freq.    3094.43  E(vib)   ...       0.00
freq.    3113.49  E(vib)   ...       0.00
freq.    3120.42  E(vib)   ...       0.00
freq.    3133.52  E(vib)   ...       0.00
freq.    3140.73  E(vib)   ...       0.00
freq.    3159.08  E(vib)   ...       0.00
freq.    3165.00  E(vib)   ...       0.00
freq.    3172.48  E(vib)   ...       0.00
freq.    3195.69  E(vib)   ...       0.00
freq.    3196.27  E(vib)   ...       0.00
freq.    3448.37  E(vib)   ...       0.00
freq.    3464.21  E(vib)   ...       0.00
freq.    3526.99  E(vib)   ...       0.00
freq.    3694.11  E(vib)   ...       0.00

------------
INNER ENERGY
------------

The inner energy is: U= E(el) + E(ZPE) + E(vib) + E(rot) + E(trans)
    E(el)   - is the total energy from the electronic structure calculation
              = E(kin-el) + E(nuc-el) + E(el-el) + E(nuc-nuc)
    E(ZPE)  - the the zero temperature vibrational energy from the frequency calculation
    E(vib)  - the the finite temperature correction to E(ZPE) due to population
              of excited vibrational states
    E(rot)  - is the rotational thermal energy
    E(trans)- is the translational thermal energy

Summary of contributions to the inner energy U:
Electronic energy                ...   -668.86007466 Eh
Zero point energy                ...      0.29388195 Eh     184.41 kcal/mol
Thermal vibrational correction   ...      0.01364965 Eh       8.57 kcal/mol
Thermal rotational correction    ...      0.00141627 Eh       0.89 kcal/mol
Thermal translational correction ...      0.00141627 Eh       0.89 kcal/mol
-----------------------------------------------------------------------
Total thermal energy                   -668.54971052 Eh

Summary of corrections to the electronic energy:
(perhaps to be used in another calculation)
Total thermal correction                  0.01648219 Eh      10.34 kcal/mol
Non-thermal (ZPE) correction              0.29388195 Eh     184.41 kcal/mol
-----------------------------------------------------------------------
Total correction                          0.31036414 Eh     194.76 kcal/mol

--------
ENTHALPY
--------

The enthalpy is H = U + kB*T
                kB is Boltzmann's constant
Total free energy                 ...   -668.54971052 Eh
Thermal Enthalpy correction       ...      0.00094421 Eh       0.59 kcal/mol
-----------------------------------------------------------------------
Total Enthalpy                    ...   -668.54876632 Eh

Note: Only C1 symmetry has been detected, increase convergence thresholds
      if your molecule has a higher symmetry. Symmetry factor of 1.0 is
      used for the rotational entropy correction.

Note: Rotational entropy computed according to Herzberg

Rotational constants in cm-1:     0.028144     0.014468     0.009975

                             ****ORCA TERMINATED NORMALLY****
TOTAL RUN TIME: 0 days 0 hours 33 minutes 55 seconds 19 msec
