                         Program Version 5.0.4 -  RELEASE  -
|  1> ! B3LYP EPR-II OPT
|  2> %pal nprocs 16 end
|  3> *XYZFile 1 2 model.xyz
|  4>
|  5>                          ****END OF INPUT****
 Total Charge           Charge          ....    1
 Multiplicity           Mult            ....    2
 Number of Electrons    NEL             ....  109
FINAL SINGLE POINT ENERGY      -668.639938659999
FINAL SINGLE POINT ENERGY      -668.626437151743
FINAL SINGLE POINT ENERGY      -668.635468270099
FINAL SINGLE POINT ENERGY      -668.639534488912
FINAL SINGLE POINT ENERGY      -668.641305399761
FINAL SINGLE POINT ENERGY      -668.639997939831
FINAL SINGLE POINT ENERGY      -668.641620107093
FINAL SINGLE POINT ENERGY      -668.641650562966
FINAL SINGLE POINT ENERGY      -668.641660497684
FINAL SINGLE POINT ENERGY      -668.641662433596
FINAL SINGLE POINT ENERGY      -668.641664047057
                    ***********************HURRAY********************

CARTESIAN COORDINATES (ANGSTROEM)
---------------------------------
  N     -7.687084    1.307546   -0.031709
  C     -6.415973    1.462620    0.499447
  C     -6.148160    0.373629    1.480449
  O     -7.029898   -0.477448    1.686798
  C     -5.505057    2.591217    0.111235
  C     -5.830587    3.937207    0.827596
  C     -5.166581    5.176028    0.175084
  C     -6.044092    5.937458   -0.828031
  N     -6.425828    5.100862   -2.033562
  H     -5.549734    2.709038   -0.975825
  H     -4.468060    2.317474    0.332172
  H     -5.497937    3.859581    1.866735
  H     -6.915356    4.079679    0.867908
  H     -4.211128    4.905040   -0.293959
  H     -4.917940    5.908935    0.949919
  H     -5.532324    6.827618   -1.201661
  H     -6.986567    6.244715   -0.368409
  H     -6.995911    5.644821   -2.685411
  H     -6.999933    4.241598   -1.753218
  H     -8.116830    0.467462    0.373191
  C     -8.401689    2.033731   -0.933640
  N     -4.947231    0.356317    2.122661
  H     -4.247960    1.046248    1.905192
  O     -7.980431    3.088699   -1.465178
  H     -5.595194    4.790442   -2.541925
  C     -4.622931   -0.695755    3.088714
  H     -4.663570   -1.680073    2.614724
  H     -3.616819   -0.518525    3.470906
  H     -5.333643   -0.684413    3.919037
  C     -9.772719    1.500064   -1.285796
  H     -9.796681    1.275620   -2.356808
  H    -10.043817    0.602926   -0.726547
  H    -10.514634    2.281947   -1.099455

 Multiplicity           Mult            ....    2
 Number of Electrons    NEL             ....  109
 Basis Dimension        Dim             ....  371

ORBITAL ENERGIES
----------------
                 SPIN UP ORBITALS
  NO   OCC          E(Eh)            E(eV)
   0   1.0000     -19.260974      -524.1177
   1   1.0000     -19.217641      -522.9386
   2   1.0000     -14.583405      -396.8346
   3   1.0000     -14.510417      -394.8485
   4   1.0000     -14.470594      -393.7649
   5   1.0000     -10.439436      -284.0715
   6   1.0000     -10.405459      -283.1469
   7   1.0000     -10.398039      -282.9450
   8   1.0000     -10.374326      -282.2998
   9   1.0000     -10.343515      -281.4613
  10   1.0000     -10.339331      -281.3475
  11   1.0000     -10.330279      -281.1012
  12   1.0000     -10.308873      -280.5187
  13   1.0000     -10.306122      -280.4438
  14   1.0000      -1.180383       -32.1198
  15   1.0000      -1.145677       -31.1754
  16   1.0000      -1.138169       -30.9712
  17   1.0000      -1.074063       -29.2267
  18   1.0000      -1.028026       -27.9740
  19   1.0000      -0.951304       -25.8863
  20   1.0000      -0.915888       -24.9226
  21   1.0000      -0.870075       -23.6760
  22   1.0000      -0.838741       -22.8233
  23   1.0000      -0.805743       -21.9254
  24   1.0000      -0.787223       -21.4214
  25   1.0000      -0.750508       -20.4224
  26   1.0000      -0.735633       -20.0176
  27   1.0000      -0.718014       -19.5382
  28   1.0000      -0.708188       -19.2708
  29   1.0000      -0.686824       -18.6894
  30   1.0000      -0.665588       -18.1116
  31   1.0000      -0.648822       -17.6553
  32   1.0000      -0.618020       -16.8172
  33   1.0000      -0.595616       -16.2075
  34   1.0000      -0.592039       -16.1102
  35   1.0000      -0.583634       -15.8815
  36   1.0000      -0.580594       -15.7988
  37   1.0000      -0.561061       -15.2672
  38   1.0000      -0.557073       -15.1587
  39   1.0000      -0.547856       -14.9079
  40   1.0000      -0.543117       -14.7790
  41   1.0000      -0.533309       -14.5121
  42   1.0000      -0.523568       -14.2470
  43   1.0000      -0.515998       -14.0410
  44   1.0000      -0.509411       -13.8618
  45   1.0000      -0.494152       -13.4466
  46   1.0000      -0.491942       -13.3864
  47   1.0000      -0.484342       -13.1796
  48   1.0000      -0.483329       -13.1520
  49   1.0000      -0.476181       -12.9576
  50   1.0000      -0.447687       -12.1822
  51   1.0000      -0.411518       -11.1980
  52   1.0000      -0.375822       -10.2266
  53   1.0000      -0.369911       -10.0658
  54   1.0000      -0.306460        -8.3392
  55   0.0000      -0.140725        -3.8293
  56   0.0000      -0.124213        -3.3800
  57   0.0000      -0.100309        -2.7296
  58   0.0000      -0.096968        -2.6386
  59   0.0000      -0.090136        -2.4527

                 SPIN DOWN ORBITALS
  NO   OCC          E(Eh)            E(eV)
   0   1.0000     -19.258552      -524.0519
   1   1.0000     -19.215473      -522.8796
   2   1.0000     -14.583415      -396.8349
   3   1.0000     -14.510169      -394.8418
   4   1.0000     -14.469051      -393.7229
   5   1.0000     -10.437837      -284.0280
   6   1.0000     -10.406270      -283.1690
   7   1.0000     -10.398041      -282.9451
   8   1.0000     -10.363650      -282.0093
   9   1.0000     -10.343431      -281.4591
  10   1.0000     -10.340019      -281.3662
  11   1.0000     -10.329293      -281.0744
  12   1.0000     -10.308942      -280.5206
  13   1.0000     -10.306268      -280.4478
  14   1.0000      -1.175598       -31.9897
  15   1.0000      -1.141991       -31.0752
  16   1.0000      -1.137697       -30.9583
  17   1.0000      -1.068361       -29.0716
  18   1.0000      -1.024556       -27.8796
  19   1.0000      -0.949041       -25.8247
  20   1.0000      -0.908933       -24.7333
  21   1.0000      -0.867450       -23.6045
  22   1.0000      -0.834269       -22.7016
  23   1.0000      -0.804905       -21.9026
  24   1.0000      -0.782715       -21.2988
  25   1.0000      -0.749474       -20.3942
  26   1.0000      -0.734517       -19.9872
  27   1.0000      -0.717359       -19.5203
  28   1.0000      -0.705964       -19.2103
  29   1.0000      -0.683933       -18.6108
  30   1.0000      -0.661671       -18.0050
  31   1.0000      -0.648046       -17.6342
  32   1.0000      -0.616390       -16.7728
  33   1.0000      -0.592567       -16.1246
  34   1.0000      -0.586484       -15.9590
  35   1.0000      -0.579355       -15.7651
  36   1.0000      -0.575115       -15.6497
  37   1.0000      -0.558705       -15.2031
  38   1.0000      -0.550750       -14.9867
  39   1.0000      -0.545620       -14.8471
  40   1.0000      -0.541214       -14.7272
  41   1.0000      -0.532230       -14.4827
  42   1.0000      -0.518640       -14.1129
  43   1.0000      -0.514868       -14.0103
  44   1.0000      -0.503359       -13.6971
  45   1.0000      -0.492140       -13.3918
  46   1.0000      -0.488650       -13.2968
  47   1.0000      -0.482050       -13.1173
  48   1.0000      -0.478436       -13.0189
  49   1.0000      -0.474069       -12.9001
  50   1.0000      -0.433250       -11.7893
  51   1.0000      -0.409241       -11.1360
  52   1.0000      -0.372114       -10.1257
  53   1.0000      -0.357664        -9.7325
  54   0.0000      -0.211224        -5.7477
  55   0.0000      -0.140484        -3.8228
  56   0.0000      -0.109969        -2.9924
  57   0.0000      -0.098193        -2.6720
  58   0.0000      -0.096508        -2.6261

MULLIKEN ATOMIC CHARGES AND SPIN POPULATIONS
--------------------------------------------
   0 N :    0.021341    0.004488
   1 C :    0.130038    0.693237
   2 C :    0.038956   -0.039306
   3 O :   -0.340718    0.081264
   4 C :   -0.344593   -0.039349
   5 C :   -0.248512    0.029853
   6 C :   -0.251227    0.003641
   7 C :   -0.277249    0.001876
   8 N :   -0.358894   -0.001054
   9 H :    0.141116    0.015531
  10 H :    0.135919    0.003601
  11 H :    0.163202   -0.000780
  12 H :    0.170141   -0.001691
  13 H :    0.165730    0.000058
  14 H :    0.172942    0.000373
  15 H :    0.193816    0.000581
  16 H :    0.207419   -0.000032
  17 H :    0.315333    0.000152
  18 H :    0.334128   -0.001198
  19 H :    0.268506   -0.001747
  20 C :    0.108588    0.092671
  21 N :   -0.109069    0.065352
  22 H :    0.225603   -0.002359
  23 O :   -0.321523    0.084976
  24 H :    0.306421    0.000468
  25 C :   -0.417976   -0.005516
  26 H :    0.193967    0.004680
  27 H :    0.149022    0.000052
  28 H :    0.193567    0.004084
  29 C :   -0.526997   -0.008424
  30 H :    0.197271    0.007442
  31 H :    0.169124   -0.000002
  32 H :    0.194609    0.007075
Sum of atomic charges         :    1.0000000

LOEWDIN ATOMIC CHARGES AND SPIN POPULATIONS
-------------------------------------------
   0 N :    0.152149    0.029661
   1 C :   -0.032015    0.565224
   2 C :   -0.108060    0.008089
   3 O :   -0.190702    0.077969
   4 C :   -0.059458    0.007739
   5 C :   -0.055979    0.033940
   6 C :   -0.063045    0.003794
   7 C :    0.010517    0.000659
   8 N :    0.316076   -0.000033
   9 H :    0.050049    0.012136
  10 H :    0.050092    0.002324
  11 H :    0.053699   -0.000107
  12 H :    0.054820    0.000183
  13 H :    0.055263    0.000117
  14 H :    0.063222    0.000586
  15 H :    0.053225    0.000276
  16 H :    0.060837    0.000059
  17 H :    0.113459    0.000034
  18 H :    0.092819   -0.000326
  19 H :    0.116968    0.000959
  20 C :   -0.060796    0.096058
  21 N :    0.051694    0.059420
  22 H :    0.073940    0.000618
  23 O :   -0.222135    0.082688
  24 H :    0.109893    0.000166
  25 C :    0.026984    0.000126
  26 H :    0.046062    0.003585
  27 H :    0.037200   -0.000037
  28 H :    0.046112    0.003184
  29 C :   -0.016705   -0.000192
  30 H :    0.064594    0.005859
  31 H :    0.046223   -0.000169
  32 H :    0.063002    0.005412

  Mayer bond orders larger than 0.100000
B(  0-N ,  1-C ) :   1.2313 B(  0-N , 19-H ) :   0.8446 B(  0-N , 20-C ) :   1.2988
B(  1-C ,  2-C ) :   1.0251 B(  1-C ,  4-C ) :   0.9713 B(  2-C ,  3-O ) :   1.7510
B(  2-C , 21-N ) :   1.2222 B(  4-C ,  5-C ) :   0.9534 B(  4-C ,  9-H ) :   0.9701
B(  4-C , 10-H ) :   0.9775 B(  5-C ,  6-C ) :   0.9669 B(  5-C , 11-H ) :   0.9619
B(  5-C , 12-H ) :   0.9663 B(  6-C ,  7-C ) :   0.9881 B(  6-C , 13-H ) :   0.9588
B(  6-C , 14-H ) :   0.9519 B(  7-C ,  8-N ) :   0.9303 B(  7-C , 15-H ) :   0.9501
B(  7-C , 16-H ) :   0.9451 B(  8-N , 17-H ) :   0.9010 B(  8-N , 18-H ) :   0.7187
B(  8-N , 24-H ) :   0.9024 B( 18-H , 23-O ) :   0.1817 B( 20-C , 23-O ) :   1.6809
B( 20-C , 29-C ) :   0.9318 B( 21-N , 22-H ) :   0.9329 B( 21-N , 25-C ) :   0.9582
B( 25-C , 26-H ) :   0.9480 B( 25-C , 27-H ) :   0.9638 B( 25-C , 28-H ) :   0.9472
B( 29-C , 30-H ) :   0.9431 B( 29-C , 31-H ) :   0.9659 B( 29-C , 32-H ) :   0.9455

FINAL SINGLE POINT ENERGY      -668.641666472681

DIPOLE MOMENT
-------------
                                X             Y             Z
Electronic contribution:     -3.47968      -6.70843      -0.24926
Nuclear contribution   :      4.61685      10.25266      -1.77712
                        -----------------------------------------
Total Dipole Moment    :      1.13717       3.54423      -2.02638
                        -----------------------------------------
Magnitude (a.u.)       :      4.23803
Magnitude (Debye)      :     10.77223

Rotational constants in cm-1:     0.028067     0.013892     0.009708
Rotational constants in MHz :   841.420139   416.458550   291.040607

                             ****ORCA TERMINATED NORMALLY****
TOTAL RUN TIME: 0 days 0 hours 7 minutes 28 seconds 587 msec
