                         Program Version 5.0.4 -  RELEASE  -
|  1> ! B3LYP EPR-II AUTOAUX
|  2> %pal nprocs 16 end
|  3> *XYZFile 0 2 opt.xyz
|  4> %EPRNMR
|  5>         GTENSOR   TRUE
|  6>         NUCLEI    = 1,9,10,11,12,13,14,15,16,17,30,31,32 {SHIFT, AISO, ADIP, AORB}
|  7>         ORI       GIAO
|  8> END
|  9>
| 10>                          ****END OF INPUT****

CARTESIAN COORDINATES (ANGSTROEM)
---------------------------------
  N      1.803580   -0.556686    0.370878
  C      1.096898    0.323783   -0.543655
  C      0.787984    1.620558    0.233019
  O      0.897612    1.686773    1.459747
  C     -0.193303   -0.324631   -1.119206
  C     -1.254511   -0.613482   -0.098888
  C     -2.642026   -1.002167   -0.516054
  C     -3.666574   -0.931323    0.628644
  N     -5.008668   -1.299479    0.143551
  H     -0.948347   -0.795938    0.929572
  H     -2.638714   -2.033274   -0.920405
  H     -2.990931   -0.367707   -1.342415
  H     -3.712045    0.098901    0.999374
  H     -3.308464   -1.558399    1.463470
  H     -5.680600   -1.219437    0.902013
  H     -5.010808   -2.278805   -0.131585
  H      1.794658   -0.265113    1.340446
  C      2.654847   -1.530184   -0.073725
  N      0.372816    2.672031   -0.525271
  H      0.337052    2.565324   -1.526584
  O      2.796667   -1.785490   -1.271081
  C      3.411018   -2.294461    1.008570
  H      3.150126   -3.353581    0.931594
  H      4.482593   -2.202751    0.812162
  H      3.196084   -1.943074    2.021163
  C      0.006141    3.955990    0.066384
  H      0.888387    4.495925    0.426046
  H     -0.500396    4.560922   -0.688180
  H     -0.665899    3.798103    0.912905
  H      1.760810    0.547717   -1.387394
  H     -0.600069    0.321279   -1.911624
  H      0.129375   -1.246501   -1.630433

 Total Charge           Charge          ....    0
 Multiplicity           Mult            ....    2
 Number of Electrons    NEL             ....  109
 Basis Dimension        Dim             ....  364

ORBITAL ENERGIES
----------------
                 SPIN UP ORBITALS
  NO   OCC          E(Eh)            E(eV)
   0   1.0000     -19.121042      -520.3100
   1   1.0000     -19.100245      -519.7441
   2   1.0000     -14.370672      -391.0459
   3   1.0000     -14.349774      -390.4772
   4   1.0000     -14.308271      -389.3478
   5   1.0000     -10.301497      -280.3180
   6   1.0000     -10.288320      -279.9594
   7   1.0000     -10.239841      -278.6402
   8   1.0000     -10.225328      -278.2453
   9   1.0000     -10.206292      -277.7273
  10   1.0000     -10.195617      -277.4368
  11   1.0000     -10.191463      -277.3238
  12   1.0000     -10.185832      -277.1706
  13   1.0000     -10.184428      -277.1324
  14   1.0000      -1.043991       -28.4084
  15   1.0000      -1.022139       -27.8138
  16   1.0000      -0.929821       -25.3017
  17   1.0000      -0.916867       -24.9492
  18   1.0000      -0.876130       -23.8407
  19   1.0000      -0.800591       -21.7852
  20   1.0000      -0.760333       -20.6897
  21   1.0000      -0.727102       -19.7855
  22   1.0000      -0.714127       -19.4324
  23   1.0000      -0.666921       -18.1478
  24   1.0000      -0.616237       -16.7687
  25   1.0000      -0.597541       -16.2599
  26   1.0000      -0.584242       -15.8980
  27   1.0000      -0.558296       -15.1920
  28   1.0000      -0.536885       -14.6094
  29   1.0000      -0.489380       -13.3167
  30   1.0000      -0.480871       -13.0852
  31   1.0000      -0.472227       -12.8499
  32   1.0000      -0.463347       -12.6083
  33   1.0000      -0.456550       -12.4234
  34   1.0000      -0.453316       -12.3354
  35   1.0000      -0.446561       -12.1515
  36   1.0000      -0.433962       -11.8087
  37   1.0000      -0.426254       -11.5989
  38   1.0000      -0.422246       -11.4899
  39   1.0000      -0.405561       -11.0359
  40   1.0000      -0.401252       -10.9186
  41   1.0000      -0.396468       -10.7885
  42   1.0000      -0.387260       -10.5379
  43   1.0000      -0.374986       -10.2039
  44   1.0000      -0.370681       -10.0867
  45   1.0000      -0.361839        -9.8461
  46   1.0000      -0.348941        -9.4952
  47   1.0000      -0.343774        -9.3546
  48   1.0000      -0.331142        -9.0108
  49   1.0000      -0.270187        -7.3522
  50   1.0000      -0.268587        -7.3086
  51   1.0000      -0.252093        -6.8598
  52   1.0000      -0.246229        -6.7002
  53   1.0000      -0.238150        -6.4804
  54   1.0000      -0.185925        -5.0593
  55   0.0000       0.006409         0.1744
  56   0.0000       0.012088         0.3289
  57   0.0000       0.025335         0.6894
  58   0.0000       0.026813         0.7296
  59   0.0000       0.030785         0.8377

                 SPIN DOWN ORBITALS
  NO   OCC          E(Eh)            E(eV)
   0   1.0000     -19.120954      -520.3076
   1   1.0000     -19.100148      -519.7414
   2   1.0000     -14.370658      -391.0455
   3   1.0000     -14.349735      -390.4761
   4   1.0000     -14.308225      -389.3466
   5   1.0000     -10.301506      -280.3182
   6   1.0000     -10.288326      -279.9596
   7   1.0000     -10.239657      -278.6352
   8   1.0000     -10.225327      -278.2453
   9   1.0000     -10.206062      -277.7211
  10   1.0000     -10.196450      -277.4595
  11   1.0000     -10.185832      -277.1706
  12   1.0000     -10.185266      -277.1552
  13   1.0000     -10.177704      -276.9494
  14   1.0000      -1.043840       -28.4043
  15   1.0000      -1.022003       -27.8101
  16   1.0000      -0.929760       -25.3000
  17   1.0000      -0.916629       -24.9427
  18   1.0000      -0.875736       -23.8300
  19   1.0000      -0.792107       -21.5543
  20   1.0000      -0.754567       -20.5328
  21   1.0000      -0.727010       -19.7829
  22   1.0000      -0.712986       -19.4013
  23   1.0000      -0.662687       -18.0326
  24   1.0000      -0.611497       -16.6397
  25   1.0000      -0.597485       -16.2584
  26   1.0000      -0.579931       -15.7807
  27   1.0000      -0.547576       -14.9003
  28   1.0000      -0.536420       -14.5967
  29   1.0000      -0.488166       -13.2837
  30   1.0000      -0.479704       -13.0534
  31   1.0000      -0.471924       -12.8417
  32   1.0000      -0.462108       -12.5746
  33   1.0000      -0.455961       -12.4073
  34   1.0000      -0.449461       -12.2305
  35   1.0000      -0.445713       -12.1285
  36   1.0000      -0.427687       -11.6380
  37   1.0000      -0.424072       -11.5396
  38   1.0000      -0.419826       -11.4241
  39   1.0000      -0.405209       -11.0263
  40   1.0000      -0.399224       -10.8634
  41   1.0000      -0.394935       -10.7467
  42   1.0000      -0.385193       -10.4816
  43   1.0000      -0.372371       -10.1327
  44   1.0000      -0.368836       -10.0365
  45   1.0000      -0.359079        -9.7710
  46   1.0000      -0.344346        -9.3701
  47   1.0000      -0.340342        -9.2612
  48   1.0000      -0.328839        -8.9482
  49   1.0000      -0.269967        -7.3462
  50   1.0000      -0.267964        -7.2917
  51   1.0000      -0.250722        -6.8225
  52   1.0000      -0.246016        -6.6944
  53   1.0000      -0.237649        -6.4668
  54   0.0000      -0.044604        -1.2137
  55   0.0000       0.007321         0.1992
  56   0.0000       0.012262         0.3337
  57   0.0000       0.025548         0.6952
  58   0.0000       0.027711         0.7541

MULLIKEN ATOMIC CHARGES AND SPIN POPULATIONS
--------------------------------------------
   0 N :   -0.111944    0.000010
   1 C :   -0.146640    0.002518
   2 C :    0.119391    0.011655
   3 O :   -0.335759    0.001395
   4 C :   -0.271366   -0.060794
   5 C :   -0.078780    0.998421
   6 C :   -0.316913   -0.060856
   7 C :   -0.287481    0.009476
   8 N :   -0.459195    0.001343
   9 H :    0.127240   -0.048133
  10 H :    0.148059    0.054772
  11 H :    0.163048    0.019572
  12 H :    0.166433   -0.000821
  13 H :    0.136331   -0.000693
  14 H :    0.210312   -0.000257
  15 H :    0.210364    0.000122
  16 H :    0.251852    0.000096
  17 C :    0.175099    0.000118
  18 N :   -0.104265   -0.002693
  19 H :    0.233872    0.000220
  20 O :   -0.327354    0.003123
  21 C :   -0.555435   -0.000047
  22 H :    0.185440    0.000014
  23 H :    0.186480    0.000008
  24 H :    0.149332    0.000023
  25 C :   -0.443531    0.000360
  26 H :    0.177201    0.000036
  27 H :    0.144829    0.000011
  28 H :    0.188742    0.000124
  29 H :    0.156642   -0.000110
  30 H :    0.127136    0.019996
  31 H :    0.180860    0.050990
Sum of atomic charges         :    0.0000000

LOEWDIN ATOMIC CHARGES AND SPIN POPULATIONS
-------------------------------------------
   0 N :    0.064039    0.001296
   1 C :   -0.046405    0.006710
   2 C :   -0.089472    0.004633
   3 O :   -0.189793    0.003109
   4 C :   -0.068833    0.009207
   5 C :   -0.050499    0.822346
   6 C :   -0.097597    0.008882
   7 C :   -0.057017    0.008246
   8 N :   -0.096167    0.001423
   9 H :    0.045412    0.008792
  10 H :    0.051533    0.044005
  11 H :    0.054045    0.016981
  12 H :    0.040345   -0.000014
  13 H :    0.023803   -0.000176
  14 H :    0.049373   -0.000023
  15 H :    0.050968    0.000353
  16 H :    0.090358    0.000042
  17 C :   -0.103490    0.000204
  18 N :    0.041801    0.000595
  19 H :    0.079245    0.000518
  20 O :   -0.198722    0.003008
  21 C :   -0.042838    0.000012
  22 H :    0.054116    0.000001
  23 H :    0.054405   -0.000006
  24 H :    0.033767    0.000024
  25 C :    0.011972    0.000393
  26 H :    0.036275   -0.000007
  27 H :    0.032709    0.000013
  28 H :    0.044891    0.000015
  29 H :    0.066899   -0.000111
  30 H :    0.047385    0.017728
  31 H :    0.067489    0.041801

  Mayer bond orders larger than 0.100000
B(  0-N ,  1-C ) :   1.0317 B(  0-N , 16-H ) :   0.8909 B(  0-N , 17-C ) :   1.2072
B(  1-C ,  2-C ) :   0.9058 B(  1-C ,  4-C ) :   0.9403 B(  1-C , 20-O ) :   0.1428
B(  1-C , 29-H ) :   0.9713 B(  2-C ,  3-O ) :   1.8335 B(  2-C , 18-N ) :   1.2144
B(  4-C ,  5-C ) :   0.9832 B(  4-C , 30-H ) :   0.9715 B(  4-C , 31-H ) :   0.9436
B(  5-C ,  6-C ) :   0.9723 B(  5-C ,  9-H ) :   0.9913 B(  6-C ,  7-C ) :   0.9604
B(  6-C , 10-H ) :   0.9584 B(  6-C , 11-H ) :   0.9655 B(  7-C ,  8-N ) :   1.0117
B(  7-C , 12-H ) :   0.9579 B(  7-C , 13-H ) :   0.9436 B(  8-N , 14-H ) :   0.9438
B(  8-N , 15-H ) :   0.9477 B( 17-C , 20-O ) :   1.8567 B( 17-C , 21-C ) :   0.8931
B( 18-N , 19-H ) :   0.9346 B( 18-N , 25-C ) :   0.9646 B( 21-C , 22-H ) :   0.9590
B( 21-C , 23-H ) :   0.9586 B( 21-C , 24-H ) :   0.9760 B( 25-C , 26-H ) :   0.9533
B( 25-C , 27-H ) :   0.9672 B( 25-C , 28-H ) :   0.9488

FINAL SINGLE POINT ENERGY      -668.217665215648

DIPOLE MOMENT
-------------
                                X             Y             Z
Electronic contribution:      9.93395       1.40811      -0.95524
Nuclear contribution   :    -10.60773      -0.76890       1.20536
                        -----------------------------------------
Total Dipole Moment    :     -0.67378       0.63920       0.25012
                        -----------------------------------------
Magnitude (a.u.)       :      0.96183
Magnitude (Debye)      :      2.44478

Rotational constants in cm-1:     0.021166     0.012696     0.009061
Rotational constants in MHz :   634.551148   380.624607   271.638405

CHEMICAL SHIELDING SUMMARY (ppm)  --  Orbital contribution
----------------------------------------------------------

  Nucleus  Element    Isotropic     Anisotropy
  -------  -------  ------------   ------------
      0       N          127.116        116.365
      8       N          224.412         32.381
      9       H           27.467          9.623
     10       H           29.645          5.562
     11       H           29.554          3.328
     12       H           29.293          5.164
     13       H           28.811          6.704
     14       H           31.211         13.902
     15       H           31.719         11.418
     16       H           25.238          7.102
     29       H           27.575          4.349
     30       H           29.717          4.323
     31       H           28.463          5.555

                             ****ORCA TERMINATED NORMALLY****
TOTAL RUN TIME: 0 days 0 hours 6 minutes 42 seconds 115 msec
