                         Program Version 5.0.4 -  RELEASE  -
|  1> ! M062X def2-TZVP OPT FREQ
|  2> %pal nprocs 16 end
|  3> *XYZFile 0 2 opt.xyz
|  4>
|  5>                          ****END OF INPUT****
 Total Charge           Charge          ....    0
 Multiplicity           Mult            ....    2
 Number of Electrons    NEL             ....  109
FINAL SINGLE POINT ENERGY      -668.443048505674
FINAL SINGLE POINT ENERGY      -668.446070894556
FINAL SINGLE POINT ENERGY      -668.446245065942
FINAL SINGLE POINT ENERGY      -668.446274807006
FINAL SINGLE POINT ENERGY      -668.446349438348
FINAL SINGLE POINT ENERGY      -668.446396220059
FINAL SINGLE POINT ENERGY      -668.446412673547
FINAL SINGLE POINT ENERGY      -668.446415824780
FINAL SINGLE POINT ENERGY      -668.446416063114
FINAL SINGLE POINT ENERGY      -668.446413964915
FINAL SINGLE POINT ENERGY      -668.446415969352
FINAL SINGLE POINT ENERGY      -668.446422505765
FINAL SINGLE POINT ENERGY      -668.446434004523
FINAL SINGLE POINT ENERGY      -668.446442990881
FINAL SINGLE POINT ENERGY      -668.446448989029
FINAL SINGLE POINT ENERGY      -668.446450374587
                    ***********************HURRAY********************

CARTESIAN COORDINATES (ANGSTROEM)
---------------------------------
  N      1.866996   -0.559618    0.376437
  C      1.153450    0.295150   -0.538156
  C      0.757153    1.552344    0.234925
  O      0.962885    1.668606    1.429186
  C     -0.080830   -0.405505   -1.130959
  C     -1.145131   -0.645213   -0.121749
  C     -2.541241   -0.951041   -0.527123
  C     -3.548874   -0.705185    0.587867
  N     -4.900033   -0.993779    0.118842
  H     -0.842317   -0.853487    0.898932
  H     -2.625776   -2.002677   -0.847638
  H     -2.828305   -0.356281   -1.400011
  H     -3.506301    0.347536    0.875956
  H     -3.252293   -1.289619    1.469519
  H     -5.584235   -0.785543    0.834936
  H     -4.993683   -1.977642   -0.105597
  H      1.882230   -0.257266    1.339808
  C      2.688306   -1.536649   -0.078275
  N      0.150780    2.512206   -0.489728
  H      0.003699    2.365609   -1.472622
  O      2.797359   -1.790243   -1.263581
  C      3.446455   -2.305798    0.977207
  H      3.108083   -3.341192    0.957272
  H      4.503241   -2.297006    0.715775
  H      3.312249   -1.902533    1.979279
  C     -0.323148    3.728104    0.139381
  H      0.511606    4.333947    0.493060
  H     -0.900645    4.297752   -0.584053
  H     -0.952274    3.482602    0.994379
  H      1.824773    0.569174   -1.357654
  H     -0.480318    0.187139   -1.961292
  H      0.281430   -1.339071   -1.581284

 Multiplicity           Mult            ....    2
 Number of Electrons    NEL             ....  109
 Basis Dimension        Dim             ....  542

ORBITAL ENERGIES
----------------
                 SPIN UP ORBITALS
  NO   OCC          E(Eh)            E(eV)
   0   1.0000     -19.604737      -533.4720
   1   1.0000     -19.584459      -532.9202
   2   1.0000     -14.783379      -402.2762
   3   1.0000     -14.765902      -401.8006
   4   1.0000     -14.725850      -400.7108
   5   1.0000     -10.649748      -289.7944
   6   1.0000     -10.637560      -289.4627
   7   1.0000     -10.589831      -288.1639
   8   1.0000     -10.576367      -287.7976
   9   1.0000     -10.558011      -287.2981
  10   1.0000     -10.545633      -286.9613
  11   1.0000     -10.544765      -286.9376
  12   1.0000     -10.536562      -286.7144
  13   1.0000     -10.534760      -286.6654
  14   1.0000      -1.179121       -32.0855
  15   1.0000      -1.157908       -31.5083
  16   1.0000      -1.045744       -28.4561
  17   1.0000      -1.035447       -28.1759
  18   1.0000      -0.991607       -26.9830
  19   1.0000      -0.912032       -24.8177
  20   1.0000      -0.866355       -23.5747
  21   1.0000      -0.828090       -22.5335
  22   1.0000      -0.811971       -22.0948
  23   1.0000      -0.761813       -20.7300
  24   1.0000      -0.708874       -19.2894
  25   1.0000      -0.684207       -18.6182
  26   1.0000      -0.674390       -18.3511
  27   1.0000      -0.644099       -17.5268
  28   1.0000      -0.621310       -16.9067
  29   1.0000      -0.575254       -15.6535
  30   1.0000      -0.565582       -15.3903
  31   1.0000      -0.554445       -15.0872
  32   1.0000      -0.547252       -14.8915
  33   1.0000      -0.537471       -14.6253
  34   1.0000      -0.533827       -14.5262
  35   1.0000      -0.527610       -14.3570
  36   1.0000      -0.512880       -13.9562
  37   1.0000      -0.501145       -13.6368
  38   1.0000      -0.498559       -13.5665
  39   1.0000      -0.477941       -13.0054
  40   1.0000      -0.474664       -12.9163
  41   1.0000      -0.472815       -12.8660
  42   1.0000      -0.459995       -12.5171
  43   1.0000      -0.450093       -12.2477
  44   1.0000      -0.441928       -12.0255
  45   1.0000      -0.435247       -11.8437
  46   1.0000      -0.417193       -11.3524
  47   1.0000      -0.413231       -11.2446
  48   1.0000      -0.400122       -10.8879
  49   1.0000      -0.347031        -9.4432
  50   1.0000      -0.337908        -9.1949
  51   1.0000      -0.328252        -8.9322
  52   1.0000      -0.319340        -8.6897
  53   1.0000      -0.309958        -8.4344
  54   1.0000      -0.244743        -6.6598
  55   0.0000       0.042236         1.1493
  56   0.0000       0.054626         1.4864
  57   0.0000       0.063685         1.7330
  58   0.0000       0.068979         1.8770
  59   0.0000       0.071369         1.9421

                 SPIN DOWN ORBITALS
  NO   OCC          E(Eh)            E(eV)
   0   1.0000     -19.604688      -533.4707
   1   1.0000     -19.584368      -532.9177
   2   1.0000     -14.783333      -402.2749
   3   1.0000     -14.765883      -401.8001
   4   1.0000     -14.725814      -400.7098
   5   1.0000     -10.649769      -289.7949
   6   1.0000     -10.637565      -289.4629
   7   1.0000     -10.589620      -288.1582
   8   1.0000     -10.576361      -287.7974
   9   1.0000     -10.557757      -287.2912
  10   1.0000     -10.546246      -286.9779
  11   1.0000     -10.538056      -286.7551
  12   1.0000     -10.536562      -286.7144
  13   1.0000     -10.535388      -286.6825
  14   1.0000      -1.179005       -32.0824
  15   1.0000      -1.157744       -31.5038
  16   1.0000      -1.045597       -28.4522
  17   1.0000      -1.035096       -28.1664
  18   1.0000      -0.990991       -26.9662
  19   1.0000      -0.901485       -24.5307
  20   1.0000      -0.859857       -23.3979
  21   1.0000      -0.827843       -22.5268
  22   1.0000      -0.810284       -22.0489
  23   1.0000      -0.757206       -20.6046
  24   1.0000      -0.703473       -19.1425
  25   1.0000      -0.684132       -18.6162
  26   1.0000      -0.668140       -18.1810
  27   1.0000      -0.632252       -17.2045
  28   1.0000      -0.620489       -16.8844
  29   1.0000      -0.573201       -15.5976
  30   1.0000      -0.563756       -15.3406
  31   1.0000      -0.553886       -15.0720
  32   1.0000      -0.546017       -14.8579
  33   1.0000      -0.536452       -14.5976
  34   1.0000      -0.529030       -14.3956
  35   1.0000      -0.526337       -14.3223
  36   1.0000      -0.503931       -13.7126
  37   1.0000      -0.497879       -13.5480
  38   1.0000      -0.495183       -13.4746
  39   1.0000      -0.475850       -12.9485
  40   1.0000      -0.472821       -12.8661
  41   1.0000      -0.470656       -12.8072
  42   1.0000      -0.458449       -12.4750
  43   1.0000      -0.447122       -12.1668
  44   1.0000      -0.439148       -11.9498
  45   1.0000      -0.432626       -11.7724
  46   1.0000      -0.411731       -11.2038
  47   1.0000      -0.408617       -11.1190
  48   1.0000      -0.397236       -10.8093
  49   1.0000      -0.345820        -9.4102
  50   1.0000      -0.337149        -9.1743
  51   1.0000      -0.327666        -8.9162
  52   1.0000      -0.317812        -8.6481
  53   1.0000      -0.309326        -8.4172
  54   0.0000      -0.010853        -0.2953
  55   0.0000       0.039895         1.0856
  56   0.0000       0.053351         1.4517
  57   0.0000       0.062355         1.6968
  58   0.0000       0.069407         1.8886

MULLIKEN ATOMIC CHARGES AND SPIN POPULATIONS
--------------------------------------------
   0 N :   -0.390814   -0.006049
   1 C :   -0.111490    0.036495
   2 C :    0.397912    0.004879
   3 O :   -0.408856    0.001742
   4 C :   -0.295571   -0.091454
   5 C :   -0.244972    1.039655
   6 C :   -0.228788   -0.089444
   7 C :   -0.143885    0.026148
   8 N :   -0.551879    0.003241
   9 H :    0.170628   -0.051776
  10 H :    0.139574    0.056399
  11 H :    0.142658    0.016239
  12 H :    0.130784   -0.005501
  13 H :    0.123324   -0.002004
  14 H :    0.227404   -0.000477
  15 H :    0.226029   -0.000601
  16 H :    0.268395   -0.000286
  17 C :    0.393236   -0.002835
  18 N :   -0.356586    0.001445
  19 H :    0.246074   -0.000897
  20 O :   -0.413562    0.001647
  21 C :   -0.457431    0.000334
  22 H :    0.157430   -0.000018
  23 H :    0.159821   -0.000012
  24 H :    0.128592   -0.000017
  25 C :   -0.289685   -0.001850
  26 H :    0.155353    0.000155
  27 H :    0.136658    0.000246
  28 H :    0.160182    0.001539
  29 H :    0.188114   -0.000156
  30 H :    0.143231    0.010288
  31 H :    0.198120    0.052923
Sum of atomic charges         :    0.0000000

LOEWDIN ATOMIC CHARGES AND SPIN POPULATIONS
-------------------------------------------
   0 N :    0.144972    0.001207
   1 C :   -0.245517    0.007814
   2 C :   -0.440256    0.009374
   3 O :    0.061082    0.001669
   4 C :   -0.254990    0.062830
   5 C :   -0.131289    0.748992
   6 C :   -0.290615    0.062196
   7 C :   -0.342908    0.009701
   8 N :   -0.182327    0.002132
   9 H :    0.134974   -0.000088
  10 H :    0.144149    0.035462
  11 H :    0.145139    0.009540
  12 H :    0.130086    0.000745
  13 H :    0.115516   -0.000354
  14 H :    0.147160   -0.000124
  15 H :    0.148171    0.000303
  16 H :    0.194679   -0.000030
  17 C :   -0.481197    0.000337
  18 N :    0.100957    0.002414
  19 H :    0.185841    0.000208
  20 O :    0.052038    0.002466
  21 C :   -0.262686    0.000010
  22 H :    0.138715   -0.000010
  23 H :    0.138412   -0.000010
  24 H :    0.122145    0.000026
  25 C :   -0.301220    0.000596
  26 H :    0.120188    0.000059
  27 H :    0.117481    0.000012
  28 H :    0.123551    0.000249
  29 H :    0.165453    0.000522
  30 H :    0.141204    0.009391
  31 H :    0.161092    0.032361

  Mayer bond orders larger than 0.100000
B(  0-N ,  1-C ) :   0.9258 B(  0-N , 16-H ) :   0.8734 B(  0-N , 17-C ) :   1.2112
B(  1-C ,  2-C ) :   0.9411 B(  1-C ,  4-C ) :   0.8982 B(  1-C , 29-H ) :   0.9854
B(  2-C ,  3-O ) :   1.9119 B(  2-C , 18-N ) :   1.2228 B(  4-C ,  5-C ) :   0.9229
B(  4-C , 30-H ) :   0.9885 B(  4-C , 31-H ) :   0.9356 B(  5-C ,  6-C ) :   0.9364
B(  5-C ,  9-H ) :   0.9395 B(  6-C ,  7-C ) :   0.9208 B(  6-C , 10-H ) :   0.9475
B(  6-C , 11-H ) :   0.9836 B(  7-C ,  8-N ) :   0.9788 B(  7-C , 12-H ) :   0.9678
B(  7-C , 13-H ) :   0.9913 B(  8-N , 14-H ) :   0.9369 B(  8-N , 15-H ) :   0.9316
B( 17-C , 20-O ) :   1.9136 B( 17-C , 21-C ) :   0.9094 B( 18-N , 19-H ) :   0.9169
B( 18-N , 25-C ) :   0.9203 B( 21-C , 22-H ) :   0.9560 B( 21-C , 23-H ) :   0.9660
B( 21-C , 24-H ) :   0.9856 B( 25-C , 26-H ) :   0.9721 B( 25-C , 27-H ) :   0.9649
B( 25-C , 28-H ) :   0.9695

FINAL SINGLE POINT ENERGY      -668.446450012479

DIPOLE MOMENT
-------------
                                X             Y             Z
Electronic contribution:     10.22648       1.18992      -1.02153
Nuclear contribution   :    -11.03499      -0.67676       1.30101
                        -----------------------------------------
Total Dipole Moment    :     -0.80852       0.51316       0.27948
                        -----------------------------------------
Magnitude (a.u.)       :      0.99757
Magnitude (Debye)      :      2.53562

VIBRATIONAL FREQUENCIES
-----------------------

Scaling factor for frequencies =  1.000000000  (already applied!)

   0:         0.00 cm**-1
   1:         0.00 cm**-1
   2:         0.00 cm**-1
   3:         0.00 cm**-1
   4:         0.00 cm**-1
   5:         0.00 cm**-1
   6:       -23.83 cm**-1 ***imaginary mode***
   7:        44.81 cm**-1
   8:        52.03 cm**-1
   9:        70.28 cm**-1
  10:        84.71 cm**-1
  11:        90.12 cm**-1
  12:        91.98 cm**-1
  13:       107.23 cm**-1
  14:       132.84 cm**-1
  15:       150.46 cm**-1
  16:       161.60 cm**-1
  17:       164.75 cm**-1
  18:       212.44 cm**-1
  19:       234.09 cm**-1
  20:       256.55 cm**-1
  21:       291.90 cm**-1
  22:       323.82 cm**-1
  23:       361.12 cm**-1
  24:       380.62 cm**-1
  25:       401.28 cm**-1
  26:       412.78 cm**-1
  27:       445.27 cm**-1
  28:       511.74 cm**-1
  29:       552.68 cm**-1
  30:       578.17 cm**-1
  31:       633.12 cm**-1
  32:       665.04 cm**-1
  33:       696.02 cm**-1
  34:       780.09 cm**-1
  35:       806.80 cm**-1
  36:       845.01 cm**-1
  37:       878.39 cm**-1
  38:       922.40 cm**-1
  39:       954.31 cm**-1
  40:       979.06 cm**-1
  41:      1016.37 cm**-1
  42:      1028.84 cm**-1
  43:      1041.25 cm**-1
  44:      1064.03 cm**-1
  45:      1082.84 cm**-1
  46:      1114.31 cm**-1
  47:      1127.21 cm**-1
  48:      1150.68 cm**-1
  49:      1155.62 cm**-1
  50:      1161.43 cm**-1
  51:      1167.81 cm**-1
  52:      1198.67 cm**-1
  53:      1225.08 cm**-1
  54:      1238.04 cm**-1
  55:      1261.14 cm**-1
  56:      1280.43 cm**-1
  57:      1293.26 cm**-1
  58:      1319.45 cm**-1
  59:      1339.39 cm**-1
  60:      1367.17 cm**-1
  61:      1381.37 cm**-1
  62:      1409.58 cm**-1
  63:      1428.22 cm**-1
  64:      1450.34 cm**-1
  65:      1458.29 cm**-1
  66:      1472.17 cm**-1
  67:      1479.73 cm**-1
  68:      1480.87 cm**-1
  69:      1485.28 cm**-1
  70:      1491.32 cm**-1
  71:      1518.51 cm**-1
  72:      1523.86 cm**-1
  73:      1543.40 cm**-1
  74:      1576.82 cm**-1
  75:      1654.92 cm**-1
  76:      1773.87 cm**-1
  77:      1786.82 cm**-1
  78:      2970.74 cm**-1
  79:      3010.88 cm**-1
  80:      3024.95 cm**-1
  81:      3067.19 cm**-1
  82:      3077.23 cm**-1
  83:      3080.48 cm**-1
  84:      3081.66 cm**-1
  85:      3089.40 cm**-1
  86:      3102.94 cm**-1
  87:      3148.80 cm**-1
  88:      3173.00 cm**-1
  89:      3181.40 cm**-1
  90:      3182.20 cm**-1
  91:      3185.11 cm**-1
  92:      3525.26 cm**-1
  93:      3610.21 cm**-1
  94:      3613.69 cm**-1
  95:      3677.60 cm**-1

IR SPECTRUM
-----------

 Mode   freq       eps      Int      T**2         TX        TY        TZ
       cm**-1   L/(mol*cm) km/mol    a.u.
----------------------------------------------------------------------------
  7:     44.81   0.000786    3.97  0.005470  (-0.066440 -0.017915  0.027110)
  8:     52.03   0.000053    0.27  0.000316  (-0.007819  0.000466  0.015967)
  9:     70.28   0.000730    3.69  0.003240  ( 0.035356  0.042056  0.014871)
 10:     84.71   0.000719    3.63  0.002649  (-0.034448 -0.038241 -0.000053)
 11:     90.12   0.000214    1.08  0.000742  ( 0.022904  0.004894 -0.013912)
 12:     91.98   0.001880    9.50  0.006377  (-0.072172 -0.024559  0.023761)
 13:    107.23   0.002496   12.61  0.007264  ( 0.020810  0.081084  0.016003)
 14:    132.84   0.001335    6.74  0.003135  (-0.051920  0.020264 -0.005380)
 15:    150.46   0.000556    2.81  0.001154  ( 0.003100 -0.033627 -0.003624)
 16:    161.60   0.000815    4.12  0.001573  (-0.036129 -0.014250  0.008036)
 17:    164.75   0.000456    2.31  0.000864  ( 0.013108 -0.025789 -0.005218)
 18:    212.44   0.000692    3.50  0.001016  (-0.021826  0.008564  0.021597)
 19:    234.09   0.001649    8.34  0.002199  ( 0.025208 -0.039319  0.004171)
 20:    256.55   0.005494   27.76  0.006683  ( 0.041352 -0.053096 -0.046407)
 21:    291.90   0.001954    9.87  0.002089  ( 0.034613 -0.028674 -0.008285)
 22:    323.82   0.002685   13.57  0.002588  ( 0.049097 -0.000077 -0.013314)
 23:    361.12   0.001110    5.61  0.000959  ( 0.025413 -0.017629 -0.001512)
 24:    380.62   0.005884   29.74  0.004824  ( 0.029859  0.061923 -0.009911)
 25:    401.28   0.010679   53.96  0.008304  (-0.063214 -0.064988  0.009213)
 26:    412.78   0.006081   30.73  0.004598  ( 0.063075 -0.021096 -0.013196)
 27:    445.27   0.000513    2.59  0.000360  ( 0.010108  0.000391  0.016043)
 28:    511.74   0.001763    8.91  0.001075  ( 0.007012 -0.021304  0.023912)
 29:    552.68   0.007496   37.88  0.004233  (-0.063019 -0.011895  0.010938)
 30:    578.17   0.009204   46.51  0.004968  ( 0.036902  0.057871 -0.016022)
 31:    633.12   0.004358   22.02  0.002148  (-0.044653  0.005395  0.011178)
 32:    665.04   0.000896    4.53  0.000421  ( 0.014683  0.012260 -0.007396)
 33:    696.02   0.000300    1.52  0.000135  ( 0.008645  0.006800  0.003686)
 34:    780.09   0.001587    8.02  0.000635  ( 0.006932 -0.007769  0.022943)
 35:    806.80   0.002364   11.95  0.000914  (-0.027851 -0.006401 -0.009884)
 36:    845.01   0.026160  132.20  0.009661  (-0.065567  0.032482 -0.065625)
 37:    878.39   0.001378    6.96  0.000490  ( 0.005005 -0.013068 -0.017138)
 38:    922.40   0.000493    2.49  0.000167  (-0.000324 -0.008666 -0.009561)
 39:    954.31   0.001053    5.32  0.000344  (-0.012425  0.007707 -0.011424)
 40:    979.06   0.000254    1.28  0.000081  ( 0.000418 -0.006287  0.006411)
 41:   1016.37   0.000380    1.92  0.000117  ( 0.005571 -0.004319 -0.008184)
 42:   1028.84   0.002548   12.87  0.000773  (-0.021364  0.017748 -0.001168)
 43:   1041.25   0.001436    7.26  0.000430  (-0.011596  0.003933 -0.016747)
 44:   1064.03   0.001204    6.09  0.000353  (-0.015472 -0.010215  0.003089)
 45:   1082.84   0.001345    6.80  0.000388  ( 0.005793 -0.007169  0.017396)
 46:   1114.31   0.004300   21.73  0.001204  ( 0.033668  0.008325 -0.001130)
 47:   1127.21   0.000177    0.89  0.000049  (-0.003457  0.005085  0.003328)
 48:   1150.68   0.000488    2.47  0.000132  ( 0.004595  0.003758 -0.009860)
 49:   1155.62   0.000420    2.12  0.000113  ( 0.001387  0.004601 -0.009506)
 50:   1161.43   0.000226    1.14  0.000061  ( 0.002868 -0.007009  0.001841)
 51:   1167.81   0.000126    0.64  0.000034  ( 0.003429  0.004680  0.000296)
 52:   1198.67   0.000038    0.19  0.000010  (-0.001030 -0.002614  0.001378)
 53:   1225.08   0.000649    3.28  0.000165  ( 0.004802 -0.009660  0.006987)
 54:   1238.04   0.000887    4.48  0.000224  (-0.013272  0.006677 -0.001707)
 55:   1261.14   0.010863   54.90  0.002688  (-0.026161  0.044761  0.000397)
 56:   1280.43   0.001954    9.87  0.000476  (-0.012312 -0.015375 -0.009389)
 57:   1293.26   0.000233    1.18  0.000056  (-0.007390 -0.001070  0.000690)
 58:   1319.45   0.004311   21.79  0.001020  (-0.027648  0.015884  0.001711)
 59:   1339.39   0.000838    4.24  0.000195  ( 0.006386 -0.011668 -0.004288)
 60:   1367.17   0.002875   14.53  0.000656  (-0.015074  0.019664  0.006496)
 61:   1381.37   0.000486    2.46  0.000110  (-0.001239  0.009286  0.004701)
 62:   1409.58   0.005794   29.28  0.001283  ( 0.023187 -0.025446  0.009875)
 63:   1428.22   0.001663    8.40  0.000363  (-0.018706 -0.003079  0.001989)
 64:   1450.34   0.001373    6.94  0.000295  ( 0.013940  0.009031  0.004413)
 65:   1458.29   0.004266   21.56  0.000913  ( 0.010267 -0.024806  0.013859)
 66:   1472.17   0.000577    2.91  0.000122  ( 0.004797 -0.005406 -0.008369)
 67:   1479.73   0.002968   15.00  0.000626  (-0.015848  0.004698  0.018783)
 68:   1480.87   0.002720   13.75  0.000573  ( 0.014201  0.008726  0.017187)
 69:   1485.28   0.002730   13.80  0.000574  ( 0.022967 -0.004390 -0.005180)
 70:   1491.32   0.010964   55.41  0.002294  ( 0.022855 -0.039579 -0.014331)
 71:   1518.51   0.003604   18.21  0.000741  ( 0.010874 -0.024035 -0.006692)
 72:   1523.86   0.000470    2.37  0.000096  ( 0.007195 -0.005043 -0.004355)
 73:   1543.40   0.121583  614.43  0.024583  ( 0.099405 -0.119660  0.019572)
 74:   1576.82   0.019438   98.23  0.003847  ( 0.005355 -0.058568  0.019696)
 75:   1654.92   0.007546   38.13  0.001423  (-0.025415 -0.025925  0.010239)
 76:   1773.87   0.083737  423.17  0.014731  (-0.007070  0.021663  0.119214)
 77:   1786.82   0.016998   85.90  0.002969  (-0.040873  0.030339 -0.019431)
 78:   2970.74   0.005890   29.76  0.000619  (-0.010361 -0.018696 -0.012721)
 79:   3010.88   0.009455   47.78  0.000980  (-0.015871  0.005665 -0.026381)
 80:   3024.95   0.001600    8.08  0.000165  ( 0.003011  0.001456  0.012404)
 81:   3067.19   0.001919    9.70  0.000195  ( 0.003857 -0.008888  0.010069)
 82:   3077.23   0.002653   13.40  0.000269  (-0.003151  0.001378 -0.016037)
 83:   3080.48   0.009745   49.25  0.000987  ( 0.005357 -0.030566  0.004917)
 84:   3081.66   0.001385    7.00  0.000140  ( 0.002782 -0.004165 -0.010730)
 85:   3089.40   0.000613    3.10  0.000062  (-0.002328  0.001814 -0.007295)
 86:   3102.94   0.004399   22.23  0.000442  (-0.000498  0.021025 -0.000344)
 87:   3148.80   0.002019   10.20  0.000200  ( 0.012612  0.006194 -0.001630)
 88:   3173.00   0.000458    2.32  0.000045  ( 0.003334  0.004235  0.004002)
 89:   3181.40   0.001278    6.46  0.000125  (-0.003839  0.002636 -0.010182)
 90:   3182.20   0.001294    6.54  0.000127  ( 0.003153 -0.003423 -0.010256)
 91:   3185.11   0.001492    7.54  0.000146  (-0.004918  0.004702 -0.009996)
 92:   3525.26   0.000162    0.82  0.000014  (-0.003049 -0.001796  0.001363)
 93:   3610.21   0.000839    4.24  0.000073  (-0.002975  0.005970  0.005294)
 94:   3613.69   0.020513  103.66  0.001771  (-0.010682  0.027568  0.029955)
 95:   3677.60   0.008472   42.82  0.000719  ( 0.006884 -0.003889  0.025621)

--------------------------
THERMOCHEMISTRY AT 298.15K
--------------------------

Temperature         ... 298.15 K
Pressure            ... 1.00 atm
Total Mass          ... 200.26 AMU

Throughout the following assumptions are being made:
  (1) The electronic state is orbitally nondegenerate
      but the spin degeneracy is treated
  (2) There are no thermally accessible electronically excited states
  (3) Hindered rotations indicated by low frequency modes are not
      treated as such but are treated as vibrations and this may
      cause some error
  (4) All equations used are the standard statistical mechanics
      equations for an ideal gas
  (5) All vibrations are strictly harmonic

freq.      44.81  E(vib)   ...       0.53
freq.      52.03  E(vib)   ...       0.52
freq.      70.28  E(vib)   ...       0.50
freq.      84.71  E(vib)   ...       0.48
freq.      90.12  E(vib)   ...       0.47
freq.      91.98  E(vib)   ...       0.47
freq.     107.23  E(vib)   ...       0.45
freq.     132.84  E(vib)   ...       0.42
freq.     150.46  E(vib)   ...       0.40
freq.     161.60  E(vib)   ...       0.39
freq.     164.75  E(vib)   ...       0.39
freq.     212.44  E(vib)   ...       0.34
freq.     234.09  E(vib)   ...       0.32
freq.     256.55  E(vib)   ...       0.30
freq.     291.90  E(vib)   ...       0.27
freq.     323.82  E(vib)   ...       0.25
freq.     361.12  E(vib)   ...       0.22
freq.     380.62  E(vib)   ...       0.21
freq.     401.28  E(vib)   ...       0.19
freq.     412.78  E(vib)   ...       0.19
freq.     445.27  E(vib)   ...       0.17
freq.     511.74  E(vib)   ...       0.14
freq.     552.68  E(vib)   ...       0.12
freq.     578.17  E(vib)   ...       0.11
freq.     633.12  E(vib)   ...       0.09
freq.     665.04  E(vib)   ...       0.08
freq.     696.02  E(vib)   ...       0.07
freq.     780.09  E(vib)   ...       0.05
freq.     806.80  E(vib)   ...       0.05
freq.     845.01  E(vib)   ...       0.04
freq.     878.39  E(vib)   ...       0.04
freq.     922.40  E(vib)   ...       0.03
freq.     954.31  E(vib)   ...       0.03
freq.     979.06  E(vib)   ...       0.03
freq.    1016.37  E(vib)   ...       0.02
freq.    1028.84  E(vib)   ...       0.02
freq.    1041.25  E(vib)   ...       0.02
freq.    1064.03  E(vib)   ...       0.02
freq.    1082.84  E(vib)   ...       0.02
freq.    1114.31  E(vib)   ...       0.01
freq.    1127.21  E(vib)   ...       0.01
freq.    1150.68  E(vib)   ...       0.01
freq.    1155.62  E(vib)   ...       0.01
freq.    1161.43  E(vib)   ...       0.01
freq.    1167.81  E(vib)   ...       0.01
freq.    1198.67  E(vib)   ...       0.01
freq.    1225.08  E(vib)   ...       0.01
freq.    1238.04  E(vib)   ...       0.01
freq.    1261.14  E(vib)   ...       0.01
freq.    1280.43  E(vib)   ...       0.01
freq.    1293.26  E(vib)   ...       0.01
freq.    1319.45  E(vib)   ...       0.01
freq.    1339.39  E(vib)   ...       0.01
freq.    1367.17  E(vib)   ...       0.01
freq.    1381.37  E(vib)   ...       0.01
freq.    1409.58  E(vib)   ...       0.00
freq.    1428.22  E(vib)   ...       0.00
freq.    1450.34  E(vib)   ...       0.00
freq.    1458.29  E(vib)   ...       0.00
freq.    1472.17  E(vib)   ...       0.00
freq.    1479.73  E(vib)   ...       0.00
freq.    1480.87  E(vib)   ...       0.00
freq.    1485.28  E(vib)   ...       0.00
freq.    1491.32  E(vib)   ...       0.00
freq.    1518.51  E(vib)   ...       0.00
freq.    1523.86  E(vib)   ...       0.00
freq.    1543.40  E(vib)   ...       0.00
freq.    1576.82  E(vib)   ...       0.00
freq.    1654.92  E(vib)   ...       0.00
freq.    1773.87  E(vib)   ...       0.00
freq.    1786.82  E(vib)   ...       0.00
freq.    2970.74  E(vib)   ...       0.00
freq.    3010.88  E(vib)   ...       0.00
freq.    3024.95  E(vib)   ...       0.00
freq.    3067.19  E(vib)   ...       0.00
freq.    3077.23  E(vib)   ...       0.00
freq.    3080.48  E(vib)   ...       0.00
freq.    3081.66  E(vib)   ...       0.00
freq.    3089.40  E(vib)   ...       0.00
freq.    3102.94  E(vib)   ...       0.00
freq.    3148.80  E(vib)   ...       0.00
freq.    3173.00  E(vib)   ...       0.00
freq.    3181.40  E(vib)   ...       0.00
freq.    3182.20  E(vib)   ...       0.00
freq.    3185.11  E(vib)   ...       0.00
freq.    3525.26  E(vib)   ...       0.00
freq.    3610.21  E(vib)   ...       0.00
freq.    3613.69  E(vib)   ...       0.00
freq.    3677.60  E(vib)   ...       0.00

------------
INNER ENERGY
------------

The inner energy is: U= E(el) + E(ZPE) + E(vib) + E(rot) + E(trans)
    E(el)   - is the total energy from the electronic structure calculation
              = E(kin-el) + E(nuc-el) + E(el-el) + E(nuc-nuc)
    E(ZPE)  - the the zero temperature vibrational energy from the frequency calculation
    E(vib)  - the the finite temperature correction to E(ZPE) due to population
              of excited vibrational states
    E(rot)  - is the rotational thermal energy
    E(trans)- is the translational thermal energy

Summary of contributions to the inner energy U:
Electronic energy                ...   -668.44645001 Eh
Zero point energy                ...      0.27708142 Eh     173.87 kcal/mol
Thermal vibrational correction   ...      0.01377012 Eh       8.64 kcal/mol
Thermal rotational correction    ...      0.00141627 Eh       0.89 kcal/mol
Thermal translational correction ...      0.00141627 Eh       0.89 kcal/mol
-----------------------------------------------------------------------
Total thermal energy                   -668.15276593 Eh

Summary of corrections to the electronic energy:
(perhaps to be used in another calculation)
Total thermal correction                  0.01660266 Eh      10.42 kcal/mol
Non-thermal (ZPE) correction              0.27708142 Eh     173.87 kcal/mol
-----------------------------------------------------------------------
Total correction                          0.29368408 Eh     184.29 kcal/mol

--------
ENTHALPY
--------

The enthalpy is H = U + kB*T
                kB is Boltzmann's constant
Total free energy                 ...   -668.15276593 Eh
Thermal Enthalpy correction       ...      0.00094421 Eh       0.59 kcal/mol
-----------------------------------------------------------------------
Total Enthalpy                    ...   -668.15182172 Eh

Note: Only C1 symmetry has been detected, increase convergence thresholds
      if your molecule has a higher symmetry. Symmetry factor of 1.0 is
      used for the rotational entropy correction.

Note: Rotational entropy computed according to Herzberg
Infrared and Raman Spectra, Chapter V,1, Van Nostrand Reinhold, 1945
Point Group:  C1, Symmetry Number:   1
Rotational constants in cm-1:     0.023300     0.012914     0.009494

                             ****ORCA TERMINATED NORMALLY****
TOTAL RUN TIME: 0 days 0 hours 29 minutes 5 seconds 971 msec
