                         Program Version 5.0.4 -  RELEASE  -
|  1> ! B3LYP EPR-II OPT
|  2> %pal nprocs 16 end
|  3> *XYZFile 0 2 model.xyz
|  4>
|  5>                          ****END OF INPUT****
 Total Charge           Charge          ....    0
 Multiplicity           Mult            ....    2
 Number of Electrons    NEL             ....  109
FINAL SINGLE POINT ENERGY      -668.216803267818
FINAL SINGLE POINT ENERGY      -668.218183047901
FINAL SINGLE POINT ENERGY      -668.218271220951
FINAL SINGLE POINT ENERGY      -668.218293560384
FINAL SINGLE POINT ENERGY      -668.218304860580
FINAL SINGLE POINT ENERGY      -668.218306837326
FINAL SINGLE POINT ENERGY      -668.218303212843
FINAL SINGLE POINT ENERGY      -668.218297178881
FINAL SINGLE POINT ENERGY      -668.218291938690
FINAL SINGLE POINT ENERGY      -668.218292166120
                    ***********************HURRAY********************

CARTESIAN COORDINATES (ANGSTROEM)
---------------------------------
  N      1.803580   -0.556686    0.370878
  C      1.096898    0.323783   -0.543655
  C      0.787984    1.620558    0.233019
  O      0.897612    1.686773    1.459747
  C     -0.193303   -0.324631   -1.119206
  C     -1.254511   -0.613482   -0.098888
  C     -2.642026   -1.002167   -0.516054
  C     -3.666574   -0.931323    0.628644
  N     -5.008668   -1.299479    0.143551
  H     -0.948347   -0.795938    0.929572
  H     -2.638714   -2.033274   -0.920405
  H     -2.990931   -0.367707   -1.342415
  H     -3.712045    0.098901    0.999374
  H     -3.308464   -1.558399    1.463470
  H     -5.680600   -1.219437    0.902013
  H     -5.010808   -2.278805   -0.131585
  H      1.794658   -0.265113    1.340446
  C      2.654847   -1.530184   -0.073725
  N      0.372816    2.672031   -0.525271
  H      0.337052    2.565324   -1.526584
  O      2.796667   -1.785490   -1.271081
  C      3.411018   -2.294461    1.008570
  H      3.150126   -3.353581    0.931594
  H      4.482593   -2.202751    0.812162
  H      3.196084   -1.943074    2.021163
  C      0.006141    3.955990    0.066384
  H      0.888387    4.495925    0.426046
  H     -0.500396    4.560922   -0.688180
  H     -0.665899    3.798103    0.912905
  H      1.760810    0.547717   -1.387394
  H     -0.600069    0.321279   -1.911624
  H      0.129375   -1.246501   -1.630433

 Multiplicity           Mult            ....    2
 Number of Electrons    NEL             ....  109
 Basis Dimension        Dim             ....  364

ORBITAL ENERGIES
----------------
                 SPIN UP ORBITALS
  NO   OCC          E(Eh)            E(eV)
   0   1.0000     -19.121112      -520.3119
   1   1.0000     -19.100319      -519.7461
   2   1.0000     -14.370547      -391.0425
   3   1.0000     -14.349632      -390.4733
   4   1.0000     -14.308185      -389.3455
   5   1.0000     -10.301397      -280.3153
   6   1.0000     -10.288220      -279.9567
   7   1.0000     -10.239762      -278.6381
   8   1.0000     -10.225268      -278.2437
   9   1.0000     -10.206231      -277.7257
  10   1.0000     -10.195542      -277.4348
  11   1.0000     -10.191398      -277.3220
  12   1.0000     -10.185749      -277.1683
  13   1.0000     -10.184374      -277.1309
  14   1.0000      -1.044024       -28.4093
  15   1.0000      -1.022179       -27.8149
  16   1.0000      -0.929795       -25.3010
  17   1.0000      -0.916843       -24.9486
  18   1.0000      -0.876120       -23.8404
  19   1.0000      -0.800568       -21.7846
  20   1.0000      -0.760310       -20.6891
  21   1.0000      -0.727077       -19.7848
  22   1.0000      -0.714100       -19.4316
  23   1.0000      -0.666898       -18.1472
  24   1.0000      -0.616218       -16.7682
  25   1.0000      -0.597491       -16.2586
  26   1.0000      -0.584219       -15.8974
  27   1.0000      -0.558269       -15.1913
  28   1.0000      -0.536839       -14.6081
  29   1.0000      -0.489360       -13.3162
  30   1.0000      -0.480859       -13.0848
  31   1.0000      -0.472196       -12.8491
  32   1.0000      -0.463343       -12.6082
  33   1.0000      -0.456541       -12.4231
  34   1.0000      -0.453302       -12.3350
  35   1.0000      -0.446549       -12.1512
  36   1.0000      -0.433942       -11.8082
  37   1.0000      -0.426241       -11.5986
  38   1.0000      -0.422236       -11.4896
  39   1.0000      -0.405549       -11.0355
  40   1.0000      -0.401247       -10.9185
  41   1.0000      -0.396493       -10.7891
  42   1.0000      -0.387255       -10.5377
  43   1.0000      -0.374983       -10.2038
  44   1.0000      -0.370683       -10.0868
  45   1.0000      -0.361839        -9.8461
  46   1.0000      -0.348933        -9.4950
  47   1.0000      -0.343771        -9.3545
  48   1.0000      -0.331143        -9.0108
  49   1.0000      -0.270231        -7.3534
  50   1.0000      -0.268630        -7.3098
  51   1.0000      -0.252127        -6.8607
  52   1.0000      -0.246271        -6.7014
  53   1.0000      -0.238190        -6.4815
  54   1.0000      -0.185940        -5.0597
  55   0.0000       0.006517         0.1773
  56   0.0000       0.012283         0.3342
  57   0.0000       0.025613         0.6970
  58   0.0000       0.027005         0.7349
  59   0.0000       0.031023         0.8442

                 SPIN DOWN ORBITALS
  NO   OCC          E(Eh)            E(eV)
   0   1.0000     -19.121023      -520.3095
   1   1.0000     -19.100221      -519.7434
   2   1.0000     -14.370533      -391.0421
   3   1.0000     -14.349594      -390.4723
   4   1.0000     -14.308141      -389.3443
   5   1.0000     -10.301408      -280.3156
   6   1.0000     -10.288226      -279.9569
   7   1.0000     -10.239575      -278.6330
   8   1.0000     -10.225266      -278.2436
   9   1.0000     -10.205998      -277.7193
  10   1.0000     -10.196386      -277.4578
  11   1.0000     -10.185749      -277.1683
  12   1.0000     -10.185223      -277.1540
  13   1.0000     -10.177623      -276.9472
  14   1.0000      -1.043872       -28.4052
  15   1.0000      -1.022043       -27.8112
  16   1.0000      -0.929734       -25.2993
  17   1.0000      -0.916606       -24.9421
  18   1.0000      -0.875726       -23.8297
  19   1.0000      -0.792083       -21.5537
  20   1.0000      -0.754548       -20.5323
  21   1.0000      -0.726984       -19.7823
  22   1.0000      -0.712963       -19.4007
  23   1.0000      -0.662661       -18.0319
  24   1.0000      -0.611479       -16.6392
  25   1.0000      -0.597435       -16.2570
  26   1.0000      -0.579902       -15.7799
  27   1.0000      -0.547554       -14.8997
  28   1.0000      -0.536374       -14.5955
  29   1.0000      -0.488146       -13.2831
  30   1.0000      -0.479693       -13.0531
  31   1.0000      -0.471894       -12.8409
  32   1.0000      -0.462105       -12.5745
  33   1.0000      -0.455954       -12.4071
  34   1.0000      -0.449445       -12.2300
  35   1.0000      -0.445702       -12.1282
  36   1.0000      -0.427673       -11.6376
  37   1.0000      -0.424056       -11.5391
  38   1.0000      -0.419816       -11.4238
  39   1.0000      -0.405199       -11.0260
  40   1.0000      -0.399219       -10.8633
  41   1.0000      -0.394962       -10.7475
  42   1.0000      -0.385186       -10.4815
  43   1.0000      -0.372368       -10.1326
  44   1.0000      -0.368838       -10.0366
  45   1.0000      -0.359081        -9.7711
  46   1.0000      -0.344342        -9.3700
  47   1.0000      -0.340341        -9.2612
  48   1.0000      -0.328838        -8.9481
  49   1.0000      -0.270011        -7.3474
  50   1.0000      -0.268004        -7.2928
  51   1.0000      -0.250760        -6.8235
  52   1.0000      -0.246058        -6.6956
  53   1.0000      -0.237691        -6.4679
  54   0.0000      -0.044609        -1.2139
  55   0.0000       0.007425         0.2020
  56   0.0000       0.012462         0.3391
  57   0.0000       0.025830         0.7029
  58   0.0000       0.027910         0.7595

MULLIKEN ATOMIC CHARGES AND SPIN POPULATIONS
--------------------------------------------
   0 N :   -0.111430   -0.000008
   1 C :   -0.145016    0.002591
   2 C :    0.119933    0.011653
   3 O :   -0.336029    0.001396
   4 C :   -0.271129   -0.061035
   5 C :   -0.077980    0.998783
   6 C :   -0.316291   -0.061102
   7 C :   -0.285911    0.009533
   8 N :   -0.458589    0.001332
   9 H :    0.126754   -0.048299
  10 H :    0.147500    0.054832
  11 H :    0.162687    0.019623
  12 H :    0.165894   -0.000836
  13 H :    0.135751   -0.000704
  14 H :    0.209835   -0.000256
  15 H :    0.209984    0.000124
  16 H :    0.251392    0.000098
  17 C :    0.175696    0.000117
  18 N :   -0.103893   -0.002696
  19 H :    0.233388    0.000222
  20 O :   -0.328017    0.003127
  21 C :   -0.554305   -0.000047
  22 H :    0.185058    0.000014
  23 H :    0.186140    0.000009
  24 H :    0.148854    0.000023
  25 C :   -0.442664    0.000357
  26 H :    0.176799    0.000036
  27 H :    0.144455    0.000011
  28 H :    0.188378    0.000124
  29 H :    0.155581   -0.000128
  30 H :    0.126755    0.020060
  31 H :    0.180421    0.051048
Sum of atomic charges         :   -0.0000000

LOEWDIN ATOMIC CHARGES AND SPIN POPULATIONS
-------------------------------------------
   0 N :    0.064230    0.001282
   1 C :   -0.046356    0.006747
   2 C :   -0.089235    0.004625
   3 O :   -0.189990    0.003125
   4 C :   -0.068767    0.009093
   5 C :   -0.050371    0.822497
   6 C :   -0.097547    0.008766
   7 C :   -0.056953    0.008286
   8 N :   -0.096015    0.001413
   9 H :    0.045390    0.008733
  10 H :    0.051475    0.044023
  11 H :    0.054002    0.017006
  12 H :    0.040297   -0.000020
  13 H :    0.023738   -0.000181
  14 H :    0.049310   -0.000023
  15 H :    0.050920    0.000355
  16 H :    0.090287    0.000043
  17 C :   -0.103291    0.000206
  18 N :    0.041953    0.000594
  19 H :    0.079176    0.000519
  20 O :   -0.198979    0.003009
  21 C :   -0.042695    0.000012
  22 H :    0.054059    0.000001
  23 H :    0.054349   -0.000006
  24 H :    0.033718    0.000024
  25 C :    0.011978    0.000393
  26 H :    0.036217   -0.000007
  27 H :    0.032664    0.000013
  28 H :    0.044846    0.000015
  29 H :    0.066809   -0.000119
  30 H :    0.047338    0.017757
  31 H :    0.067440    0.041820

  Mayer bond orders larger than 0.100000
B(  0-N ,  1-C ) :   1.0319 B(  0-N , 16-H ) :   0.8910 B(  0-N , 17-C ) :   1.2072
B(  1-C ,  2-C ) :   0.9059 B(  1-C ,  4-C ) :   0.9400 B(  1-C , 20-O ) :   0.1427
B(  1-C , 29-H ) :   0.9715 B(  2-C ,  3-O ) :   1.8334 B(  2-C , 18-N ) :   1.2142
B(  4-C ,  5-C ) :   0.9833 B(  4-C , 30-H ) :   0.9715 B(  4-C , 31-H ) :   0.9437
B(  5-C ,  6-C ) :   0.9724 B(  5-C ,  9-H ) :   0.9913 B(  6-C ,  7-C ) :   0.9609
B(  6-C , 10-H ) :   0.9585 B(  6-C , 11-H ) :   0.9655 B(  7-C ,  8-N ) :   1.0118
B(  7-C , 12-H ) :   0.9579 B(  7-C , 13-H ) :   0.9436 B(  8-N , 14-H ) :   0.9440
B(  8-N , 15-H ) :   0.9479 B( 17-C , 20-O ) :   1.8564 B( 17-C , 21-C ) :   0.8935
B( 18-N , 19-H ) :   0.9347 B( 18-N , 25-C ) :   0.9653 B( 21-C , 22-H ) :   0.9591
B( 21-C , 23-H ) :   0.9588 B( 21-C , 24-H ) :   0.9758 B( 25-C , 26-H ) :   0.9535
B( 25-C , 27-H ) :   0.9671 B( 25-C , 28-H ) :   0.9489

FINAL SINGLE POINT ENERGY      -668.218294632830

DIPOLE MOMENT
-------------
                                X             Y             Z
Electronic contribution:      9.93404       1.40762      -0.95512
Nuclear contribution   :    -10.60773      -0.76890       1.20536
                        -----------------------------------------
Total Dipole Moment    :     -0.67369       0.63871       0.25024
                        -----------------------------------------
Magnitude (a.u.)       :      0.96147
Magnitude (Debye)      :      2.44387

Rotational constants in cm-1:     0.021166     0.012696     0.009061
Rotational constants in MHz :   634.551148   380.624607   271.638405

                             ****ORCA TERMINATED NORMALLY****
TOTAL RUN TIME: 0 days 0 hours 6 minutes 7 seconds 801 msec
