                         Program Version 5.0.4 -  RELEASE  -
|  1> ! B3LYP EPR-II AUTOAUX
|  2> %pal nprocs 16 end
|  3> *XYZFile 1 2 opt.xyz
|  4> %EPRNMR
|  5>         GTENSOR   TRUE
|  6>         NUCLEI    = 1,9,10,11,12,13,14,15,16,17,22,31,32,33 {SHIFT, AISO, ADIP, AORB}
|  7>         ORI       GIAO
|  8> END
|  9>
| 10>                          ****END OF INPUT****

CARTESIAN COORDINATES (ANGSTROEM)
---------------------------------
  N     -7.815204    0.900419    0.019371
  C     -6.374150    0.851442    0.211759
  C     -6.112257    0.951068    1.726935
  O     -6.833404    1.654512    2.440790
  C     -5.636342    1.988519   -0.551998
  C     -6.055242    3.367988   -0.140011
  C     -5.822153    4.541002   -1.053069
  C     -5.719704    5.839939   -0.248827
  N     -5.591995    7.048531   -1.187662
  H     -6.675191    3.502451    0.742892
  H     -6.650377    4.629605   -1.782312
  H     -4.905098    4.390995   -1.640603
  H     -4.840690    5.860390    0.398189
  H     -6.612007    6.021521    0.354282
  H     -5.538238    7.931776   -0.670808
  H     -6.396551    7.098922   -1.821040
  H     -8.368438    1.156626    0.825790
  C     -8.396072    0.598040   -1.185406
  N     -5.027415    0.267549    2.178745
  H     -4.574585   -0.373476    1.543783
  O     -7.718688    0.323902   -2.176741
  H     -4.751167    6.969853   -1.768548
  C     -4.625448    0.247395    3.585411
  H     -4.881794   -0.708458    4.053529
  H     -3.547979    0.411599    3.672203
  H     -5.159096    1.045334    4.101231
  C     -9.918426    0.610107   -1.215770
  H    -10.250336    1.240101   -2.044769
  H    -10.265290   -0.407059   -1.419554
  H    -10.371449    0.959527   -0.284315
  H     -5.997125   -0.097783   -0.186041
  H     -4.549766    1.857272   -0.414585
  H     -5.829023    1.827037   -1.620896

 Total Charge           Charge          ....    1
 Multiplicity           Mult            ....    2
 Number of Electrons    NEL             ....  109
 Basis Dimension        Dim             ....  371

ORBITAL ENERGIES
----------------
                 SPIN UP ORBITALS
  NO   OCC          E(Eh)            E(eV)
   0   1.0000     -19.207389      -522.6596
   1   1.0000     -19.185665      -522.0685
   2   1.0000     -14.646957      -398.5640
   3   1.0000     -14.457658      -393.4129
   4   1.0000     -14.439728      -392.9250
   5   1.0000     -10.426040      -283.7070
   6   1.0000     -10.390338      -282.7355
   7   1.0000     -10.373508      -282.2775
   8   1.0000     -10.357621      -281.8452
   9   1.0000     -10.334898      -281.2269
  10   1.0000     -10.323346      -280.9125
  11   1.0000     -10.301105      -280.3073
  12   1.0000     -10.300151      -280.2814
  13   1.0000     -10.263927      -279.2956
  14   1.0000      -1.193497       -32.4767
  15   1.0000      -1.130795       -30.7705
  16   1.0000      -1.109074       -30.1794
  17   1.0000      -1.015460       -27.6321
  18   1.0000      -1.005651       -27.3651
  19   1.0000      -0.961481       -26.1632
  20   1.0000      -0.893819       -24.3221
  21   1.0000      -0.847487       -23.0613
  22   1.0000      -0.809370       -22.0241
  23   1.0000      -0.804805       -21.8999
  24   1.0000      -0.779868       -21.2213
  25   1.0000      -0.777648       -21.1609
  26   1.0000      -0.747335       -20.3360
  27   1.0000      -0.708496       -19.2791
  28   1.0000      -0.680298       -18.5119
  29   1.0000      -0.674343       -18.3498
  30   1.0000      -0.656094       -17.8532
  31   1.0000      -0.628822       -17.1111
  32   1.0000      -0.622455       -16.9379
  33   1.0000      -0.584776       -15.9126
  34   1.0000      -0.575503       -15.6602
  35   1.0000      -0.556121       -15.1328
  36   1.0000      -0.553041       -15.0490
  37   1.0000      -0.544811       -14.8251
  38   1.0000      -0.538610       -14.6563
  39   1.0000      -0.530919       -14.4471
  40   1.0000      -0.525338       -14.2952
  41   1.0000      -0.510423       -13.8893
  42   1.0000      -0.498345       -13.5607
  43   1.0000      -0.491830       -13.3834
  44   1.0000      -0.480445       -13.0736
  45   1.0000      -0.478910       -13.0318
  46   1.0000      -0.471215       -12.8224
  47   1.0000      -0.467600       -12.7240
  48   1.0000      -0.457062       -12.4373
  49   1.0000      -0.428980       -11.6731
  50   1.0000      -0.358313        -9.7502
  51   1.0000      -0.353341        -9.6149
  52   1.0000      -0.339032        -9.2255
  53   1.0000      -0.333070        -9.0633
  54   1.0000      -0.315203        -8.5771
  55   0.0000      -0.185628        -5.0512
  56   0.0000      -0.114797        -3.1238
  57   0.0000      -0.111036        -3.0214
  58   0.0000      -0.084538        -2.3004
  59   0.0000      -0.082041        -2.2324

                 SPIN DOWN ORBITALS
  NO   OCC          E(Eh)            E(eV)
   0   1.0000     -19.207325      -522.6579
   1   1.0000     -19.185574      -522.0660
   2   1.0000     -14.646899      -398.5624
   3   1.0000     -14.457667      -393.4131
   4   1.0000     -14.439622      -392.9221
   5   1.0000     -10.425652      -283.6964
   6   1.0000     -10.390346      -282.7357
   7   1.0000     -10.373523      -282.2779
   8   1.0000     -10.358536      -281.8701
   9   1.0000     -10.334800      -281.2242
  10   1.0000     -10.309472      -280.5350
  11   1.0000     -10.301874      -280.3282
  12   1.0000     -10.300151      -280.2814
  13   1.0000     -10.263925      -279.2956
  14   1.0000      -1.193305       -32.4715
  15   1.0000      -1.130690       -30.7676
  16   1.0000      -1.108930       -30.1755
  17   1.0000      -1.015446       -27.6317
  18   1.0000      -1.005179       -27.3523
  19   1.0000      -0.955695       -26.0058
  20   1.0000      -0.886991       -24.1363
  21   1.0000      -0.842354       -22.9216
  22   1.0000      -0.808776       -22.0079
  23   1.0000      -0.803878       -21.8746
  24   1.0000      -0.779676       -21.2161
  25   1.0000      -0.775393       -21.0995
  26   1.0000      -0.745014       -20.2729
  27   1.0000      -0.696410       -18.9503
  28   1.0000      -0.680229       -18.5100
  29   1.0000      -0.673211       -18.3190
  30   1.0000      -0.651296       -17.7227
  31   1.0000      -0.625432       -17.0189
  32   1.0000      -0.621669       -16.9165
  33   1.0000      -0.581998       -15.8370
  34   1.0000      -0.572772       -15.5859
  35   1.0000      -0.553897       -15.0723
  36   1.0000      -0.549241       -14.9456
  37   1.0000      -0.542167       -14.7531
  38   1.0000      -0.536847       -14.6083
  39   1.0000      -0.528737       -14.3877
  40   1.0000      -0.522825       -14.2268
  41   1.0000      -0.506064       -13.7707
  42   1.0000      -0.495140       -13.4734
  43   1.0000      -0.489131       -13.3099
  44   1.0000      -0.479697       -13.0532
  45   1.0000      -0.477538       -12.9945
  46   1.0000      -0.470021       -12.7899
  47   1.0000      -0.464877       -12.6499
  48   1.0000      -0.456262       -12.4155
  49   1.0000      -0.428351       -11.6560
  50   1.0000      -0.357991        -9.7414
  51   1.0000      -0.352999        -9.6056
  52   1.0000      -0.337484        -9.1834
  53   1.0000      -0.331331        -9.0160
  54   0.0000      -0.185417        -5.0454
  55   0.0000      -0.175249        -4.7688
  56   0.0000      -0.113670        -3.0931
  57   0.0000      -0.110036        -2.9942
  58   0.0000      -0.084322        -2.2945

MULLIKEN ATOMIC CHARGES AND SPIN POPULATIONS
--------------------------------------------
   0 N :   -0.120197    0.004545
   1 C :   -0.115249    0.005968
   2 C :    0.084874   -0.000898
   3 O :   -0.332068    0.002204
   4 C :   -0.288517   -0.065657
   5 C :   -0.090721    0.997654
   6 C :   -0.268910   -0.050836
   7 C :   -0.281623    0.013287
   8 N :   -0.371683    0.000882
   9 H :    0.163517   -0.048190
  10 H :    0.162790    0.053195
  11 H :    0.164858    0.013767
  12 H :    0.224530    0.000766
  13 H :    0.221653   -0.000833
  14 H :    0.335263   -0.000315
  15 H :    0.334497    0.001102
  16 H :    0.255751    0.000143
  17 C :    0.177847   -0.001993
  18 N :   -0.104184    0.000073
  19 H :    0.237969   -0.000003
  20 O :   -0.318341    0.002633
  21 H :    0.335404    0.000014
  22 C :   -0.447978   -0.000018
  23 H :    0.181595   -0.000019
  24 H :    0.165709    0.000002
  25 H :    0.198130    0.000026
  26 C :   -0.545321    0.000376
  27 H :    0.184478   -0.000008
  28 H :    0.200104   -0.000041
  29 H :    0.150106    0.000042
  30 H :    0.152288   -0.001206
  31 H :    0.155490    0.044437
  32 H :    0.197937    0.028902
Sum of atomic charges         :    1.0000000

LOEWDIN ATOMIC CHARGES AND SPIN POPULATIONS
-------------------------------------------
   0 N :    0.060468    0.004020
   1 C :   -0.037753    0.003928
   2 C :   -0.098185    0.000080
   3 O :   -0.199430    0.002200
   4 C :   -0.060420    0.008563
   5 C :   -0.034934    0.825440
   6 C :   -0.083284    0.011616
   7 C :    0.028517    0.014583
   8 N :    0.342666    0.001921
   9 H :    0.057636    0.007500
  10 H :    0.059779    0.041583
  11 H :    0.058759    0.011339
  12 H :    0.063722    0.000325
  13 H :    0.063276    0.000246
  14 H :    0.124530    0.000079
  15 H :    0.126842    0.000816
  16 H :    0.091954    0.000295
  17 C :   -0.099614   -0.000218
  18 N :    0.051461   -0.000259
  19 H :    0.083464    0.000043
  20 O :   -0.190880    0.002521
  21 H :    0.127067    0.000110
  22 C :    0.020756    0.000003
  23 H :    0.038925   -0.000015
  24 H :    0.035216   -0.000008
  25 H :    0.054360    0.000002
  26 C :   -0.035678    0.000017
  27 H :    0.055042   -0.000023
  28 H :    0.062063   -0.000028
  29 H :    0.035583    0.000041
  30 H :    0.064145   -0.000597
  31 H :    0.061471    0.039077
  32 H :    0.072475    0.024800

  Mayer bond orders larger than 0.100000
B(  0-N ,  1-C ) :   1.0275 B(  0-N , 16-H ) :   0.8966 B(  0-N , 17-C ) :   1.1937
B(  1-C ,  2-C ) :   0.9052 B(  1-C ,  4-C ) :   0.9393 B(  1-C , 20-O ) :   0.1239
B(  1-C , 30-H ) :   0.9767 B(  2-C ,  3-O ) :   1.8438 B(  2-C , 18-N ) :   1.2138
B(  4-C ,  5-C ) :   0.9744 B(  4-C , 31-H ) :   0.9552 B(  4-C , 32-H ) :   0.9455
B(  5-C ,  6-C ) :   1.0012 B(  5-C ,  9-H ) :   0.9668 B(  6-C ,  7-C ) :   0.9694
B(  6-C , 10-H ) :   0.9390 B(  6-C , 11-H ) :   0.9522 B(  7-C ,  8-N ) :   0.8729
B(  7-C , 12-H ) :   0.9335 B(  7-C , 13-H ) :   0.9374 B(  8-N , 14-H ) :   0.8845
B(  8-N , 15-H ) :   0.8822 B(  8-N , 21-H ) :   0.8834 B( 17-C , 20-O ) :   1.8617
B( 17-C , 26-C ) :   0.8998 B( 18-N , 19-H ) :   0.9263 B( 18-N , 22-C ) :   0.9646
B( 22-C , 23-H ) :   0.9533 B( 22-C , 24-H ) :   0.9587 B( 22-C , 25-H ) :   0.9451
B( 26-C , 27-H ) :   0.9578 B( 26-C , 28-H ) :   0.9496 B( 26-C , 29-H ) :   0.9747

FINAL SINGLE POINT ENERGY      -668.586823722067

DIPOLE MOMENT
-------------
                                X             Y             Z
Electronic contribution:     -1.65799      -4.91769      -0.06328
Nuclear contribution   :      3.86420      12.03423      -1.09652
                        -----------------------------------------
Total Dipole Moment    :      2.20620       7.11654      -1.15980
                        -----------------------------------------
Magnitude (a.u.)       :      7.54040
Magnitude (Debye)      :     19.16617

Rotational constants in cm-1:     0.019579     0.013319     0.008990
Rotational constants in MHz :   586.972327   399.294273   269.528123

CHEMICAL SHIELDING SUMMARY (ppm)  --  Orbital contribution
----------------------------------------------------------

  Nucleus  Element    Isotropic     Anisotropy
  -------  -------  ------------   ------------
      0       N          128.666        121.772
      8       N          212.701         26.249
      9       H           26.689          9.719
     10       H           28.909          5.737
     11       H           29.230          3.542
     12       H           28.341          5.372
     13       H           28.276          5.753
     14       H           27.462         15.871
     15       H           27.626         12.785
     16       H           25.860          6.566
     21       H           27.844         13.138
     30       H           27.812          5.147
     31       H           29.519          6.501
     32       H           27.890          4.856

                             ****ORCA TERMINATED NORMALLY****
TOTAL RUN TIME: 0 days 0 hours 7 minutes 26 seconds 811 msec
