                         Program Version 5.0.4 -  RELEASE  -
|  1> ! M062X def2-TZVP OPT FREQ
|  2> %pal nprocs 16 end
|  3> *XYZFile 1 2 opt.xyz
|  4>
|  5>                          ****END OF INPUT****
 Total Charge           Charge          ....    1
 Multiplicity           Mult            ....    2
 Number of Electrons    NEL             ....  109
FINAL SINGLE POINT ENERGY      -668.804661596173
FINAL SINGLE POINT ENERGY      -668.807419597698
FINAL SINGLE POINT ENERGY      -668.807510933965
FINAL SINGLE POINT ENERGY      -668.807515957209
FINAL SINGLE POINT ENERGY      -668.807512343409
FINAL SINGLE POINT ENERGY      -668.807512436301
FINAL SINGLE POINT ENERGY      -668.807461587342
FINAL SINGLE POINT ENERGY      -668.807534431828
FINAL SINGLE POINT ENERGY      -668.807543804252
FINAL SINGLE POINT ENERGY      -668.807551759049
FINAL SINGLE POINT ENERGY      -668.807551834943
FINAL SINGLE POINT ENERGY      -668.807543204633
FINAL SINGLE POINT ENERGY      -668.807533751522
FINAL SINGLE POINT ENERGY      -668.807530450458
FINAL SINGLE POINT ENERGY      -668.807530014119
                    ***********************HURRAY********************

CARTESIAN COORDINATES (ANGSTROEM)
---------------------------------
  N     -7.869270    0.899228    0.017330
  C     -6.438648    0.830795    0.185755
  C     -6.138834    0.994501    1.673296
  O     -6.868867    1.666580    2.381090
  C     -5.717329    1.932668   -0.611927
  C     -6.132852    3.298110   -0.203877
  C     -5.737311    4.480372   -1.019005
  C     -5.767827    5.734050   -0.166142
  N     -5.478417    6.956748   -1.014856
  H     -6.905250    3.419593    0.546077
  H     -6.420558    4.605612   -1.875365
  H     -4.735868    4.333552   -1.439282
  H     -5.016670    5.713454    0.620649
  H     -6.747389    5.894854    0.281335
  H     -5.505029    7.820588   -0.468162
  H     -6.164122    7.038317   -1.770197
  H     -8.414386    1.144131    0.830048
  C     -8.446990    0.570368   -1.169019
  N     -5.003686    0.409511    2.098302
  H     -4.523742   -0.210142    1.466522
  O     -7.774449    0.269541   -2.136906
  H     -4.554369    6.885254   -1.448559
  C     -4.547103    0.490835    3.473969
  H     -4.683164   -0.460834    3.987718
  H     -3.494274    0.766820    3.505901
  H     -5.138570    1.250795    3.976856
  C     -9.954142    0.593695   -1.206483
  H    -10.271583    1.170521   -2.073172
  H    -10.307093   -0.428008   -1.345452
  H    -10.399473    1.005474   -0.302857
  H     -6.081603   -0.134393   -0.182036
  H     -4.632480    1.808468   -0.498857
  H     -5.939356    1.755588   -1.670739

 Multiplicity           Mult            ....    2
 Number of Electrons    NEL             ....  109
 Basis Dimension        Dim             ....  548

ORBITAL ENERGIES
----------------
                 SPIN UP ORBITALS
  NO   OCC          E(Eh)            E(eV)
   0   1.0000     -19.691902      -535.8439
   1   1.0000     -19.670102      -535.2507
   2   1.0000     -15.066253      -409.9736
   3   1.0000     -14.872422      -404.6992
   4   1.0000     -14.856097      -404.2550
   5   1.0000     -10.777631      -293.2743
   6   1.0000     -10.740353      -292.2599
   7   1.0000     -10.723232      -291.7940
   8   1.0000     -10.706815      -291.3472
   9   1.0000     -10.685112      -290.7567
  10   1.0000     -10.675145      -290.4855
  11   1.0000     -10.653716      -289.9023
  12   1.0000     -10.651413      -289.8397
  13   1.0000     -10.614782      -288.8429
  14   1.0000      -1.308431       -35.6042
  15   1.0000      -1.266567       -34.4650
  16   1.0000      -1.244706       -33.8702
  17   1.0000      -1.133123       -30.8339
  18   1.0000      -1.124270       -30.5930
  19   1.0000      -1.069737       -29.1090
  20   1.0000      -1.000195       -27.2167
  21   1.0000      -0.947294       -25.7772
  22   1.0000      -0.909502       -24.7488
  23   1.0000      -0.900436       -24.5021
  24   1.0000      -0.863122       -23.4867
  25   1.0000      -0.859481       -23.3877
  26   1.0000      -0.835307       -22.7298
  27   1.0000      -0.796435       -21.6721
  28   1.0000      -0.768020       -20.8989
  29   1.0000      -0.756032       -20.5727
  30   1.0000      -0.736649       -20.0452
  31   1.0000      -0.709450       -19.3051
  32   1.0000      -0.702150       -19.1065
  33   1.0000      -0.667502       -18.1636
  34   1.0000      -0.655449       -17.8357
  35   1.0000      -0.636798       -17.3282
  36   1.0000      -0.630190       -17.1483
  37   1.0000      -0.626152       -17.0385
  38   1.0000      -0.618090       -16.8191
  39   1.0000      -0.606971       -16.5165
  40   1.0000      -0.602432       -16.3930
  41   1.0000      -0.584222       -15.8975
  42   1.0000      -0.571072       -15.5397
  43   1.0000      -0.563774       -15.3411
  44   1.0000      -0.559998       -15.2383
  45   1.0000      -0.547841       -14.9075
  46   1.0000      -0.544068       -14.8048
  47   1.0000      -0.535605       -14.5745
  48   1.0000      -0.532886       -14.5006
  49   1.0000      -0.502084       -13.6624
  50   1.0000      -0.437063       -11.8931
  51   1.0000      -0.421840       -11.4789
  52   1.0000      -0.414669       -11.2837
  53   1.0000      -0.408743       -11.1225
  54   1.0000      -0.371816       -10.1176
  55   0.0000      -0.151605        -4.1254
  56   0.0000      -0.088749        -2.4150
  57   0.0000      -0.085163        -2.3174
  58   0.0000      -0.064412        -1.7527
  59   0.0000      -0.044691        -1.2161

                 SPIN DOWN ORBITALS
  NO   OCC          E(Eh)            E(eV)
   0   1.0000     -19.691817      -535.8416
   1   1.0000     -19.670002      -535.2480
   2   1.0000     -15.066227      -409.9729
   3   1.0000     -14.872432      -404.6994
   4   1.0000     -14.856001      -404.2523
   5   1.0000     -10.777322      -293.2658
   6   1.0000     -10.740358      -292.2600
   7   1.0000     -10.723242      -291.7942
   8   1.0000     -10.707528      -291.3666
   9   1.0000     -10.685104      -290.7565
  10   1.0000     -10.668269      -290.2984
  11   1.0000     -10.653715      -289.9023
  12   1.0000     -10.652009      -289.8559
  13   1.0000     -10.614780      -288.8429
  14   1.0000      -1.308250       -35.5993
  15   1.0000      -1.266377       -34.4599
  16   1.0000      -1.244501       -33.8646
  17   1.0000      -1.133093       -30.8330
  18   1.0000      -1.123687       -30.5771
  19   1.0000      -1.061775       -28.8924
  20   1.0000      -0.993516       -27.0349
  21   1.0000      -0.940577       -25.5944
  22   1.0000      -0.909236       -24.7416
  23   1.0000      -0.899089       -24.4655
  24   1.0000      -0.859459       -23.3871
  25   1.0000      -0.859051       -23.3760
  26   1.0000      -0.833907       -22.6918
  27   1.0000      -0.781772       -21.2731
  28   1.0000      -0.767790       -20.8926
  29   1.0000      -0.754762       -20.5381
  30   1.0000      -0.730775       -19.8854
  31   1.0000      -0.707253       -19.2453
  32   1.0000      -0.697824       -18.9888
  33   1.0000      -0.664070       -18.0703
  34   1.0000      -0.651847       -17.7377
  35   1.0000      -0.635906       -17.3039
  36   1.0000      -0.626339       -17.0435
  37   1.0000      -0.623569       -16.9682
  38   1.0000      -0.612928       -16.6786
  39   1.0000      -0.602460       -16.3938
  40   1.0000      -0.599370       -16.3097
  41   1.0000      -0.579780       -15.7766
  42   1.0000      -0.567060       -15.4305
  43   1.0000      -0.560920       -15.2634
  44   1.0000      -0.556719       -15.1491
  45   1.0000      -0.547821       -14.9070
  46   1.0000      -0.541884       -14.7454
  47   1.0000      -0.532140       -14.4803
  48   1.0000      -0.531537       -14.4639
  49   1.0000      -0.501252       -13.6398
  50   1.0000      -0.436124       -11.8675
  51   1.0000      -0.421450       -11.4682
  52   1.0000      -0.412722       -11.2307
  53   1.0000      -0.406129       -11.0513
  54   0.0000      -0.152777        -4.1573
  55   0.0000      -0.141155        -3.8410
  56   0.0000      -0.090378        -2.4593
  57   0.0000      -0.089416        -2.4331
  58   0.0000      -0.070901        -1.9293

MULLIKEN ATOMIC CHARGES AND SPIN POPULATIONS
--------------------------------------------
   0 N :   -0.398542    0.003748
   1 C :   -0.126037    0.017800
   2 C :    0.384682   -0.003145
   3 O :   -0.419550    0.004680
   4 C :   -0.275973   -0.080264
   5 C :   -0.276588    1.002342
   6 C :   -0.263936   -0.058566
   7 C :   -0.234047    0.020271
   8 N :   -0.342662    0.003078
   9 H :    0.201623   -0.050463
  10 H :    0.181541    0.053358
  11 H :    0.177493    0.012948
  12 H :    0.216964   -0.000951
  13 H :    0.220738   -0.002711
  14 H :    0.341580   -0.000434
  15 H :    0.334634   -0.000154
  16 H :    0.271385   -0.000027
  17 C :    0.387992   -0.006548
  18 N :   -0.353008    0.002249
  19 H :    0.255906   -0.000110
  20 O :   -0.404433    0.002118
  21 H :    0.335384   -0.000200
  22 C :   -0.313337    0.000016
  23 H :    0.165128    0.000006
  24 H :    0.150343    0.000015
  25 H :    0.181294    0.000222
  26 C :   -0.450209    0.001333
  27 H :    0.160304   -0.000015
  28 H :    0.176134   -0.000003
  29 H :    0.132178   -0.000125
  30 H :    0.196124   -0.002036
  31 H :    0.167609    0.039084
  32 H :    0.219287    0.042486
Sum of atomic charges         :    1.0000000

LOEWDIN ATOMIC CHARGES AND SPIN POPULATIONS
-------------------------------------------
   0 N :    0.140836    0.004316
   1 C :   -0.243488    0.000316
   2 C :   -0.444964    0.001936
   3 O :    0.055301    0.003527
   4 C :   -0.246733    0.061667
   5 C :   -0.120220    0.751464
   6 C :   -0.286170    0.067644
   7 C :   -0.236675    0.011909
   8 N :    0.161103    0.002302
   9 H :    0.146008   -0.000275
  10 H :    0.154383    0.032791
  11 H :    0.154403    0.008303
  12 H :    0.154563    0.001054
  13 H :    0.155315   -0.000121
  14 H :    0.217518   -0.000096
  15 H :    0.217987    0.000616
  16 H :    0.195713    0.000177
  17 C :   -0.476418    0.000230
  18 N :    0.107654   -0.000433
  19 H :    0.190969    0.000055
  20 O :    0.060857    0.002551
  21 H :    0.218430   -0.000028
  22 C :   -0.292284   -0.000073
  23 H :    0.122492   -0.000006
  24 H :    0.118535   -0.000004
  25 H :    0.134160    0.000041
  26 C :   -0.256638    0.000014
  27 H :    0.139968   -0.000018
  28 H :    0.146831   -0.000024
  29 H :    0.124107    0.000022
  30 H :    0.165569   -0.000656
  31 H :    0.153175    0.024643
  32 H :    0.167712    0.026158

  Mayer bond orders larger than 0.100000
B(  0-N ,  1-C ) :   0.9662 B(  0-N , 16-H ) :   0.8818 B(  0-N , 17-C ) :   1.1953
B(  1-C ,  2-C ) :   0.9308 B(  1-C ,  4-C ) :   0.9212 B(  1-C , 30-H ) :   0.9801
B(  2-C ,  3-O ) :   1.8598 B(  2-C , 18-N ) :   1.2542 B(  4-C ,  5-C ) :   0.9786
B(  4-C , 31-H ) :   0.9416 B(  4-C , 32-H ) :   0.9482 B(  5-C ,  6-C ) :   0.9498
B(  5-C ,  9-H ) :   0.9269 B(  6-C ,  7-C ) :   0.8990 B(  6-C , 10-H ) :   0.9456
B(  6-C , 11-H ) :   0.9585 B(  7-C ,  8-N ) :   0.8109 B(  7-C , 12-H ) :   0.9590
B(  7-C , 13-H ) :   0.9668 B(  8-N , 14-H ) :   0.8774 B(  8-N , 15-H ) :   0.8745
B(  8-N , 21-H ) :   0.8754 B( 17-C , 20-O ) :   1.8967 B( 17-C , 26-C ) :   0.9146
B( 18-N , 19-H ) :   0.9125 B( 18-N , 22-C ) :   0.8929 B( 22-C , 23-H ) :   0.9676
B( 22-C , 24-H ) :   0.9654 B( 22-C , 25-H ) :   0.9614 B( 26-C , 27-H ) :   0.9592
B( 26-C , 28-H ) :   0.9507 B( 26-C , 29-H ) :   0.9881

FINAL SINGLE POINT ENERGY      -668.807528990185

DIPOLE MOMENT
-------------
                                X             Y             Z
Electronic contribution:     -1.95235      -5.10940      -0.07967
Nuclear contribution   :      4.31986      12.16161      -0.90994
                        -----------------------------------------
Total Dipole Moment    :      2.36750       7.05221      -0.98961
                        -----------------------------------------
Magnitude (a.u.)       :      7.50454
Magnitude (Debye)      :     19.07502

VIBRATIONAL FREQUENCIES
-----------------------

Scaling factor for frequencies =  1.000000000  (already applied!)

   0:         0.00 cm**-1
   1:         0.00 cm**-1
   2:         0.00 cm**-1
   3:         0.00 cm**-1
   4:         0.00 cm**-1
   5:         0.00 cm**-1
   6:       -20.67 cm**-1 ***imaginary mode***
   7:        43.88 cm**-1
   8:        49.05 cm**-1
   9:        66.98 cm**-1
  10:        76.72 cm**-1
  11:        95.20 cm**-1
  12:       112.49 cm**-1
  13:       116.14 cm**-1
  14:       121.66 cm**-1
  15:       140.24 cm**-1
  16:       158.59 cm**-1
  17:       180.83 cm**-1
  18:       187.71 cm**-1
  19:       220.87 cm**-1
  20:       254.49 cm**-1
  21:       284.94 cm**-1
  22:       303.66 cm**-1
  23:       347.82 cm**-1
  24:       379.85 cm**-1
  25:       399.19 cm**-1
  26:       417.45 cm**-1
  27:       483.93 cm**-1
  28:       518.00 cm**-1
  29:       529.54 cm**-1
  30:       571.77 cm**-1
  31:       653.82 cm**-1
  32:       674.79 cm**-1
  33:       715.12 cm**-1
  34:       771.59 cm**-1
  35:       813.59 cm**-1
  36:       875.90 cm**-1
  37:       891.69 cm**-1
  38:       894.00 cm**-1
  39:       927.55 cm**-1
  40:       956.39 cm**-1
  41:       981.07 cm**-1
  42:      1015.82 cm**-1
  43:      1032.39 cm**-1
  44:      1053.02 cm**-1
  45:      1065.95 cm**-1
  46:      1076.77 cm**-1
  47:      1104.45 cm**-1
  48:      1151.78 cm**-1
  49:      1160.57 cm**-1
  50:      1162.28 cm**-1
  51:      1171.70 cm**-1
  52:      1185.87 cm**-1
  53:      1223.16 cm**-1
  54:      1251.41 cm**-1
  55:      1272.92 cm**-1
  56:      1281.19 cm**-1
  57:      1283.37 cm**-1
  58:      1329.01 cm**-1
  59:      1340.29 cm**-1
  60:      1372.37 cm**-1
  61:      1391.45 cm**-1
  62:      1411.60 cm**-1
  63:      1415.34 cm**-1
  64:      1446.94 cm**-1
  65:      1451.34 cm**-1
  66:      1465.98 cm**-1
  67:      1473.26 cm**-1
  68:      1481.09 cm**-1
  69:      1489.43 cm**-1
  70:      1504.08 cm**-1
  71:      1504.71 cm**-1
  72:      1509.61 cm**-1
  73:      1512.14 cm**-1
  74:      1541.58 cm**-1
  75:      1594.99 cm**-1
  76:      1649.56 cm**-1
  77:      1657.80 cm**-1
  78:      1774.29 cm**-1
  79:      1787.47 cm**-1
  80:      2970.72 cm**-1
  81:      3026.90 cm**-1
  82:      3064.98 cm**-1
  83:      3066.66 cm**-1
  84:      3085.73 cm**-1
  85:      3089.21 cm**-1
  86:      3090.18 cm**-1
  87:      3121.62 cm**-1
  88:      3156.46 cm**-1
  89:      3171.37 cm**-1
  90:      3184.26 cm**-1
  91:      3185.62 cm**-1
  92:      3196.62 cm**-1
  93:      3201.93 cm**-1
  94:      3411.62 cm**-1
  95:      3494.08 cm**-1
  96:      3505.21 cm**-1
  97:      3630.58 cm**-1
  98:      3648.99 cm**-1

IR SPECTRUM
-----------

 Mode   freq       eps      Int      T**2         TX        TY        TZ
       cm**-1   L/(mol*cm) km/mol    a.u.
----------------------------------------------------------------------------
  7:     43.88   0.000922    4.66  0.006557  (-0.071114 -0.037017 -0.011373)
  8:     49.05   0.000185    0.94  0.001178  ( 0.008298 -0.013736 -0.030334)
  9:     66.98   0.002676   13.52  0.012467  ( 0.023467  0.062170 -0.089726)
 10:     76.72   0.001620    8.19  0.006589  ( 0.066178 -0.046328 -0.007952)
 11:     95.20   0.001869    9.45  0.006127  (-0.011828 -0.065340  0.041450)
 12:    112.49   0.000990    5.00  0.002746  ( 0.031353  0.041134  0.008458)
 13:    116.14   0.000185    0.93  0.000496  ( 0.005247 -0.009731  0.019334)
 14:    121.66   0.001538    7.77  0.003945  ( 0.028631  0.051760  0.021115)
 15:    140.24   0.000825    4.17  0.001835  ( 0.032411  0.015332  0.023442)
 16:    158.59   0.000508    2.57  0.001000  (-0.007216  0.020666 -0.022826)
 17:    180.83   0.001602    8.09  0.002764  ( 0.036391  0.037001  0.008408)
 18:    187.71   0.001384    7.00  0.002302  ( 0.028457  0.037789  0.007992)
 19:    220.87   0.002282   11.53  0.003224  (-0.006351 -0.056404  0.001594)
 20:    254.49   0.001294    6.54  0.001587  ( 0.029613  0.016872  0.020629)
 21:    284.94   0.000830    4.20  0.000909  ( 0.028659 -0.008388  0.004195)
 22:    303.66   0.000181    0.92  0.000186  ( 0.001868 -0.010154 -0.008925)
 23:    347.82   0.000375    1.89  0.000336  (-0.017442 -0.005410  0.001699)
 24:    379.85   0.001461    7.38  0.001200  ( 0.019572 -0.006259  0.027890)
 25:    399.19   0.005066   25.60  0.003960  ( 0.053201  0.008612  0.032495)
 26:    417.45   0.003899   19.70  0.002914  (-0.014721 -0.012049 -0.050523)
 27:    483.93   0.009034   45.66  0.005826  ( 0.058449  0.048902 -0.004269)
 28:    518.00   0.000798    4.03  0.000481  (-0.007624  0.019039  0.007751)
 29:    529.54   0.023768  120.11  0.014007  ( 0.038637  0.103102 -0.043403)
 30:    571.77   0.003257   16.46  0.001778  ( 0.036617 -0.011488  0.017467)
 31:    653.82   0.001509    7.63  0.000720  ( 0.013990  0.022242  0.005460)
 32:    674.79   0.001217    6.15  0.000563  ( 0.012005  0.016962  0.011441)
 33:    715.12   0.000290    1.47  0.000127  ( 0.001354  0.009763  0.005423)
 34:    771.59   0.000754    3.81  0.000305  (-0.016070  0.006399 -0.002378)
 35:    813.59   0.000266    1.34  0.000102  (-0.003491 -0.005155  0.007957)
 36:    875.90   0.001864    9.42  0.000664  (-0.008190 -0.017483 -0.017069)
 37:    891.69   0.001827    9.23  0.000639  (-0.014489  0.018561 -0.009219)
 38:    894.00   0.004070   20.57  0.001421  ( 0.017352  0.033048  0.005220)
 39:    927.55   0.000896    4.53  0.000302  (-0.007440  0.012585  0.009372)
 40:    956.39   0.002151   10.87  0.000702  ( 0.019904 -0.017401  0.001738)
 41:    981.07   0.001225    6.19  0.000390  ( 0.006778  0.006790 -0.017250)
 42:   1015.82   0.001075    5.43  0.000330  ( 0.001729 -0.002441 -0.017927)
 43:   1032.39   0.001335    6.75  0.000404  ( 0.014476  0.011467  0.007907)
 44:   1053.02   0.000631    3.19  0.000187  ( 0.004922 -0.012047  0.004192)
 45:   1065.95   0.001545    7.81  0.000452  (-0.005075 -0.020234  0.004128)
 46:   1076.77   0.001899    9.60  0.000550  ( 0.020837 -0.009460  0.005162)
 47:   1104.45   0.001042    5.26  0.000294  (-0.001606  0.014379  0.009219)
 48:   1151.78   0.003077   15.55  0.000834  (-0.001823  0.024186  0.015664)
 49:   1160.57   0.000426    2.15  0.000115  (-0.004306 -0.008067 -0.005571)
 50:   1162.28   0.001950    9.85  0.000523  (-0.019087  0.004566 -0.011761)
 51:   1171.70   0.002569   12.98  0.000684  (-0.012254  0.018065 -0.014415)
 52:   1185.87   0.005089   25.72  0.001339  ( 0.029531 -0.013123  0.017174)
 53:   1223.16   0.000711    3.59  0.000181  ( 0.005736  0.009022 -0.008187)
 54:   1251.41   0.012015   60.72  0.002996  (-0.035941 -0.000745 -0.041279)
 55:   1272.92   0.003674   18.57  0.000901  (-0.022536  0.001237 -0.019784)
 56:   1281.19   0.003658   18.49  0.000891  ( 0.014134  0.025833 -0.004884)
 57:   1283.37   0.000891    4.50  0.000217  ( 0.005446  0.012761 -0.004905)
 58:   1329.01   0.004586   23.18  0.001077  (-0.018919 -0.011855 -0.024050)
 59:   1340.29   0.000403    2.04  0.000094  ( 0.007716  0.003421 -0.004749)
 60:   1372.37   0.002735   13.82  0.000622  (-0.014267 -0.002100 -0.020348)
 61:   1391.45   0.001768    8.94  0.000397  ( 0.002612 -0.004751  0.019162)
 62:   1411.60   0.010353   52.32  0.002289  ( 0.038250  0.005929  0.028117)
 63:   1415.34   0.001470    7.43  0.000324  ( 0.003107  0.017632 -0.001895)
 64:   1446.94   0.002575   13.01  0.000555  ( 0.009398  0.006765 -0.020523)
 65:   1451.34   0.004425   22.36  0.000951  ( 0.018158 -0.023165 -0.009221)
 66:   1465.98   0.001739    8.79  0.000370  (-0.009876  0.003283  0.016181)
 67:   1473.26   0.002740   13.85  0.000580  (-0.003739  0.011803 -0.020665)
 68:   1481.09   0.000582    2.94  0.000123  (-0.002807  0.010499  0.002112)
 69:   1489.43   0.010325   52.18  0.002163  ( 0.020104  0.014369  0.039405)
 70:   1504.08   0.006732   34.02  0.001397  (-0.029162 -0.003640 -0.023090)
 71:   1504.71   0.034278  173.23  0.007109  ( 0.016423  0.069615 -0.044643)
 72:   1509.61   0.002243   11.34  0.000464  ( 0.001996 -0.014221 -0.016047)
 73:   1512.14   0.010110   51.09  0.002086  (-0.020173  0.008600 -0.040068)
 74:   1541.58   0.083396  421.45  0.016882  (-0.101350 -0.019028 -0.079045)
 75:   1594.99   0.035174  177.76  0.006882  (-0.053233  0.042546 -0.047307)
 76:   1649.56   0.010246   51.78  0.001938  ( 0.043148 -0.007944  0.003660)
 77:   1657.80   0.007456   37.68  0.001403  (-0.005045 -0.022910 -0.029209)
 78:   1774.29   0.084064  424.83  0.014785  ( 0.076175 -0.059502 -0.073771)
 79:   1787.47   0.016422   82.99  0.002867  ( 0.027198 -0.019872  0.041622)
 80:   2970.72   0.005321   26.89  0.000559  ( 0.001833 -0.016289  0.017037)
 81:   3026.90   0.002438   12.32  0.000251  (-0.015256 -0.003928  0.001790)
 82:   3064.98   0.001237    6.25  0.000126  (-0.010637  0.000276  0.003569)
 83:   3066.66   0.000874    4.42  0.000089  ( 0.000101 -0.009261  0.001778)
 84:   3085.73   0.006814   34.43  0.000689  ( 0.016450 -0.008448  0.018631)
 85:   3089.21   0.001589    8.03  0.000161  (-0.009659  0.007325 -0.003686)
 86:   3090.18   0.000495    2.50  0.000050  ( 0.004274 -0.004118 -0.003843)
 87:   3121.62   0.000127    0.64  0.000013  ( 0.000559 -0.002155 -0.002790)
 88:   3156.46   0.001644    8.31  0.000163  ( 0.009513  0.008266 -0.001940)
 89:   3171.37   0.000316    1.60  0.000031  ( 0.004300 -0.002345 -0.002659)
 90:   3184.26   0.000007    0.04  0.000001  ( 0.000631  0.000478  0.000266)
 91:   3185.62   0.000955    4.83  0.000094  ( 0.003909 -0.001913 -0.008638)
 92:   3196.62   0.000006    0.03  0.000001  (-0.000609  0.000346 -0.000258)
 93:   3201.93   0.000830    4.19  0.000081  (-0.000061  0.008766 -0.002003)
 94:   3411.62   0.012844   64.91  0.001175  ( 0.004611  0.029930 -0.016055)
 95:   3494.08   0.021242  107.35  0.001897  (-0.041016 -0.003996 -0.014102)
 96:   3505.21   0.023504  118.78  0.002093  ( 0.012463 -0.029649 -0.032529)
 97:   3630.58   0.016535   83.56  0.001421  ( 0.005063 -0.006056 -0.036864)
 98:   3648.99   0.010971   55.44  0.000938  (-0.020502  0.020627  0.009616)

--------------------------
THERMOCHEMISTRY AT 298.15K
--------------------------

Temperature         ... 298.15 K
Pressure            ... 1.00 atm
Total Mass          ... 201.27 AMU

Throughout the following assumptions are being made:
  (1) The electronic state is orbitally nondegenerate
      but the spin degeneracy is treated
  (2) There are no thermally accessible electronically excited states
  (3) Hindered rotations indicated by low frequency modes are not
      treated as such but are treated as vibrations and this may
      cause some error
  (4) All equations used are the standard statistical mechanics
      equations for an ideal gas
  (5) All vibrations are strictly harmonic

freq.      43.88  E(vib)   ...       0.53
freq.      49.05  E(vib)   ...       0.53
freq.      66.98  E(vib)   ...       0.50
freq.      76.72  E(vib)   ...       0.49
freq.      95.20  E(vib)   ...       0.47
freq.     112.49  E(vib)   ...       0.45
freq.     116.14  E(vib)   ...       0.44
freq.     121.66  E(vib)   ...       0.44
freq.     140.24  E(vib)   ...       0.41
freq.     158.59  E(vib)   ...       0.39
freq.     180.83  E(vib)   ...       0.37
freq.     187.71  E(vib)   ...       0.36
freq.     220.87  E(vib)   ...       0.33
freq.     254.49  E(vib)   ...       0.30
freq.     284.94  E(vib)   ...       0.28
freq.     303.66  E(vib)   ...       0.26
freq.     347.82  E(vib)   ...       0.23
freq.     379.85  E(vib)   ...       0.21
freq.     399.19  E(vib)   ...       0.19
freq.     417.45  E(vib)   ...       0.18
freq.     483.93  E(vib)   ...       0.15
freq.     518.00  E(vib)   ...       0.13
freq.     529.54  E(vib)   ...       0.13
freq.     571.77  E(vib)   ...       0.11
freq.     653.82  E(vib)   ...       0.08
freq.     674.79  E(vib)   ...       0.08
freq.     715.12  E(vib)   ...       0.07
freq.     771.59  E(vib)   ...       0.05
freq.     813.59  E(vib)   ...       0.05
freq.     875.90  E(vib)   ...       0.04
freq.     891.69  E(vib)   ...       0.03
freq.     894.00  E(vib)   ...       0.03
freq.     927.55  E(vib)   ...       0.03
freq.     956.39  E(vib)   ...       0.03
freq.     981.07  E(vib)   ...       0.02
freq.    1015.82  E(vib)   ...       0.02
freq.    1032.39  E(vib)   ...       0.02
freq.    1053.02  E(vib)   ...       0.02
freq.    1065.95  E(vib)   ...       0.02
freq.    1076.77  E(vib)   ...       0.02
freq.    1104.45  E(vib)   ...       0.02
freq.    1151.78  E(vib)   ...       0.01
freq.    1160.57  E(vib)   ...       0.01
freq.    1162.28  E(vib)   ...       0.01
freq.    1171.70  E(vib)   ...       0.01
freq.    1185.87  E(vib)   ...       0.01
freq.    1223.16  E(vib)   ...       0.01
freq.    1251.41  E(vib)   ...       0.01
freq.    1272.92  E(vib)   ...       0.01
freq.    1281.19  E(vib)   ...       0.01
freq.    1283.37  E(vib)   ...       0.01
freq.    1329.01  E(vib)   ...       0.01
freq.    1340.29  E(vib)   ...       0.01
freq.    1372.37  E(vib)   ...       0.01
freq.    1391.45  E(vib)   ...       0.00
freq.    1411.60  E(vib)   ...       0.00
freq.    1415.34  E(vib)   ...       0.00
freq.    1446.94  E(vib)   ...       0.00
freq.    1451.34  E(vib)   ...       0.00
freq.    1465.98  E(vib)   ...       0.00
freq.    1473.26  E(vib)   ...       0.00
freq.    1481.09  E(vib)   ...       0.00
freq.    1489.43  E(vib)   ...       0.00
freq.    1504.08  E(vib)   ...       0.00
freq.    1504.71  E(vib)   ...       0.00
freq.    1509.61  E(vib)   ...       0.00
freq.    1512.14  E(vib)   ...       0.00
freq.    1541.58  E(vib)   ...       0.00
freq.    1594.99  E(vib)   ...       0.00
freq.    1649.56  E(vib)   ...       0.00
freq.    1657.80  E(vib)   ...       0.00
freq.    1774.29  E(vib)   ...       0.00
freq.    1787.47  E(vib)   ...       0.00
freq.    2970.72  E(vib)   ...       0.00
freq.    3026.90  E(vib)   ...       0.00
freq.    3064.98  E(vib)   ...       0.00
freq.    3066.66  E(vib)   ...       0.00
freq.    3085.73  E(vib)   ...       0.00
freq.    3089.21  E(vib)   ...       0.00
freq.    3090.18  E(vib)   ...       0.00
freq.    3121.62  E(vib)   ...       0.00
freq.    3156.46  E(vib)   ...       0.00
freq.    3171.37  E(vib)   ...       0.00
freq.    3184.26  E(vib)   ...       0.00
freq.    3185.62  E(vib)   ...       0.00
freq.    3196.62  E(vib)   ...       0.00
freq.    3201.93  E(vib)   ...       0.00
freq.    3411.62  E(vib)   ...       0.00
freq.    3494.08  E(vib)   ...       0.00
freq.    3505.21  E(vib)   ...       0.00
freq.    3630.58  E(vib)   ...       0.00
freq.    3648.99  E(vib)   ...       0.00

------------
INNER ENERGY
------------

The inner energy is: U= E(el) + E(ZPE) + E(vib) + E(rot) + E(trans)
    E(el)   - is the total energy from the electronic structure calculation
              = E(kin-el) + E(nuc-el) + E(el-el) + E(nuc-nuc)
    E(ZPE)  - the the zero temperature vibrational energy from the frequency calculation
    E(vib)  - the the finite temperature correction to E(ZPE) due to population
              of excited vibrational states
    E(rot)  - is the rotational thermal energy
    E(trans)- is the translational thermal energy

Summary of contributions to the inner energy U:
Electronic energy                ...   -668.80752899 Eh
Zero point energy                ...      0.29187011 Eh     183.15 kcal/mol
Thermal vibrational correction   ...      0.01384845 Eh       8.69 kcal/mol
Thermal rotational correction    ...      0.00141627 Eh       0.89 kcal/mol
Thermal translational correction ...      0.00141627 Eh       0.89 kcal/mol
-----------------------------------------------------------------------
Total thermal energy                   -668.49897789 Eh

Summary of corrections to the electronic energy:
(perhaps to be used in another calculation)
Total thermal correction                  0.01668099 Eh      10.47 kcal/mol
Non-thermal (ZPE) correction              0.29187011 Eh     183.15 kcal/mol
-----------------------------------------------------------------------
Total correction                          0.30855110 Eh     193.62 kcal/mol

--------
ENTHALPY
--------

The enthalpy is H = U + kB*T
                kB is Boltzmann's constant
Total free energy                 ...   -668.49897789 Eh
Thermal Enthalpy correction       ...      0.00094421 Eh       0.59 kcal/mol
-----------------------------------------------------------------------
Total Enthalpy                    ...   -668.49803368 Eh

Note: Only C1 symmetry has been detected, increase convergence thresholds
      if your molecule has a higher symmetry. Symmetry factor of 1.0 is
      used for the rotational entropy correction.

Note: Rotational entropy computed according to Herzberg
Infrared and Raman Spectra, Chapter V,1, Van Nostrand Reinhold, 1945

Rotational constants in cm-1:     0.019650     0.014001     0.009321

                             ****ORCA TERMINATED NORMALLY****
TOTAL RUN TIME: 0 days 0 hours 28 minutes 42 seconds 183 msec
