                         Program Version 5.0.4 -  RELEASE  -
|  1> ! B3LYP EPR-II OPT
|  2> %pal nprocs 16 end
|  3> *XYZFile 1 2 model.xyz
|  4>
|  5>                          ****END OF INPUT****
 Total Charge           Charge          ....    1
 Multiplicity           Mult            ....    2
 Number of Electrons    NEL             ....  109
FINAL SINGLE POINT ENERGY      -668.585606494941
FINAL SINGLE POINT ENERGY      -668.586997384913
FINAL SINGLE POINT ENERGY      -668.587074131227
FINAL SINGLE POINT ENERGY      -668.587115276316
FINAL SINGLE POINT ENERGY      -668.587142437413
FINAL SINGLE POINT ENERGY      -668.587173131577
FINAL SINGLE POINT ENERGY      -668.587208466463
FINAL SINGLE POINT ENERGY      -668.587236908419
FINAL SINGLE POINT ENERGY      -668.587258219903
FINAL SINGLE POINT ENERGY      -668.587275046629
FINAL SINGLE POINT ENERGY      -668.587340551817
FINAL SINGLE POINT ENERGY      -668.587350274787
FINAL SINGLE POINT ENERGY      -668.587361462862
FINAL SINGLE POINT ENERGY      -668.587378680788
FINAL SINGLE POINT ENERGY      -668.587398323035
FINAL SINGLE POINT ENERGY      -668.587416562647
FINAL SINGLE POINT ENERGY      -668.587429506413
FINAL SINGLE POINT ENERGY      -668.587436536528
FINAL SINGLE POINT ENERGY      -668.587440108035
                    ***********************HURRAY********************

CARTESIAN COORDINATES (ANGSTROEM)
---------------------------------
  N     -7.815204    0.900419    0.019371
  C     -6.374150    0.851442    0.211759
  C     -6.112257    0.951068    1.726935
  O     -6.833404    1.654512    2.440790
  C     -5.636342    1.988519   -0.551998
  C     -6.055242    3.367988   -0.140011
  C     -5.822153    4.541002   -1.053069
  C     -5.719704    5.839939   -0.248827
  N     -5.591995    7.048531   -1.187662
  H     -6.675191    3.502451    0.742892
  H     -6.650377    4.629605   -1.782312
  H     -4.905098    4.390995   -1.640603
  H     -4.840690    5.860390    0.398189
  H     -6.612007    6.021521    0.354282
  H     -5.538238    7.931776   -0.670808
  H     -6.396551    7.098922   -1.821040
  H     -8.368438    1.156626    0.825790
  C     -8.396072    0.598040   -1.185406
  N     -5.027415    0.267549    2.178745
  H     -4.574585   -0.373476    1.543783
  O     -7.718688    0.323902   -2.176741
  H     -4.751167    6.969853   -1.768548
  C     -4.625448    0.247395    3.585411
  H     -4.881794   -0.708458    4.053529
  H     -3.547979    0.411599    3.672203
  H     -5.159096    1.045334    4.101231
  C     -9.918426    0.610107   -1.215770
  H    -10.250336    1.240101   -2.044769
  H    -10.265290   -0.407059   -1.419554
  H    -10.371449    0.959527   -0.284315
  H     -5.997125   -0.097783   -0.186041
  H     -4.549766    1.857272   -0.414585
  H     -5.829023    1.827037   -1.620896

 Multiplicity           Mult            ....    2
 Number of Electrons    NEL             ....  109
 Basis Dimension        Dim             ....  371

ORBITAL ENERGIES
----------------
                 SPIN UP ORBITALS
  NO   OCC          E(Eh)            E(eV)
   0   1.0000     -19.207433      -522.6608
   1   1.0000     -19.185702      -522.0695
   2   1.0000     -14.646861      -398.5614
   3   1.0000     -14.457519      -393.4091
   4   1.0000     -14.439587      -392.9211
   5   1.0000     -10.425976      -283.7052
   6   1.0000     -10.390217      -282.7322
   7   1.0000     -10.373414      -282.2750
   8   1.0000     -10.357583      -281.8442
   9   1.0000     -10.334837      -281.2252
  10   1.0000     -10.323297      -280.9112
  11   1.0000     -10.301049      -280.3058
  12   1.0000     -10.300094      -280.2798
  13   1.0000     -10.263840      -279.2933
  14   1.0000      -1.193490       -32.4765
  15   1.0000      -1.130822       -30.7712
  16   1.0000      -1.109101       -30.1802
  17   1.0000      -1.015428       -27.6312
  18   1.0000      -1.005626       -27.3645
  19   1.0000      -0.961477       -26.1631
  20   1.0000      -0.893806       -24.3217
  21   1.0000      -0.847470       -23.0608
  22   1.0000      -0.809353       -22.0236
  23   1.0000      -0.804774       -21.8990
  24   1.0000      -0.779867       -21.2213
  25   1.0000      -0.777637       -21.1606
  26   1.0000      -0.747315       -20.3355
  27   1.0000      -0.708486       -19.2789
  28   1.0000      -0.680244       -18.5104
  29   1.0000      -0.674320       -18.3492
  30   1.0000      -0.656066       -17.8525
  31   1.0000      -0.628821       -17.1111
  32   1.0000      -0.622412       -16.9367
  33   1.0000      -0.584764       -15.9122
  34   1.0000      -0.575496       -15.6600
  35   1.0000      -0.556107       -15.1324
  36   1.0000      -0.553020       -15.0484
  37   1.0000      -0.544805       -14.8249
  38   1.0000      -0.538612       -14.6564
  39   1.0000      -0.530908       -14.4467
  40   1.0000      -0.525331       -14.2950
  41   1.0000      -0.510415       -13.8891
  42   1.0000      -0.498349       -13.5608
  43   1.0000      -0.491821       -13.3831
  44   1.0000      -0.480452       -13.0738
  45   1.0000      -0.478899       -13.0315
  46   1.0000      -0.471219       -12.8225
  47   1.0000      -0.467586       -12.7237
  48   1.0000      -0.457067       -12.4374
  49   1.0000      -0.428992       -11.6735
  50   1.0000      -0.358345        -9.7511
  51   1.0000      -0.353379        -9.6159
  52   1.0000      -0.339063        -9.2264
  53   1.0000      -0.333096        -9.0640
  54   1.0000      -0.315219        -8.5776
  55   0.0000      -0.185492        -5.0475
  56   0.0000      -0.114524        -3.1163
  57   0.0000      -0.110902        -3.0178
  58   0.0000      -0.084590        -2.3018
  59   0.0000      -0.082151        -2.2354

                 SPIN DOWN ORBITALS
  NO   OCC          E(Eh)            E(eV)
   0   1.0000     -19.207369      -522.6591
   1   1.0000     -19.185612      -522.0670
   2   1.0000     -14.646803      -398.5598
   3   1.0000     -14.457527      -393.4093
   4   1.0000     -14.439480      -392.9182
   5   1.0000     -10.425585      -283.6946
   6   1.0000     -10.390226      -282.7324
   7   1.0000     -10.373430      -282.2754
   8   1.0000     -10.358508      -281.8693
   9   1.0000     -10.334736      -281.2225
  10   1.0000     -10.309408      -280.5333
  11   1.0000     -10.301826      -280.3269
  12   1.0000     -10.300094      -280.2798
  13   1.0000     -10.263838      -279.2932
  14   1.0000      -1.193299       -32.4713
  15   1.0000      -1.130717       -30.7684
  16   1.0000      -1.108956       -30.1762
  17   1.0000      -1.015414       -27.6308
  18   1.0000      -1.005155       -27.3517
  19   1.0000      -0.955694       -26.0057
  20   1.0000      -0.886975       -24.1358
  21   1.0000      -0.842339       -22.9212
  22   1.0000      -0.808758       -22.0074
  23   1.0000      -0.803851       -21.8739
  24   1.0000      -0.779675       -21.2160
  25   1.0000      -0.775382       -21.0992
  26   1.0000      -0.744992       -20.2723
  27   1.0000      -0.696397       -18.9499
  28   1.0000      -0.680175       -18.5085
  29   1.0000      -0.673185       -18.3183
  30   1.0000      -0.651272       -17.7220
  31   1.0000      -0.625431       -17.0188
  32   1.0000      -0.621628       -16.9154
  33   1.0000      -0.581985       -15.8366
  34   1.0000      -0.572765       -15.5857
  35   1.0000      -0.553869       -15.0715
  36   1.0000      -0.549240       -14.9456
  37   1.0000      -0.542157       -14.7528
  38   1.0000      -0.536849       -14.6084
  39   1.0000      -0.528725       -14.3873
  40   1.0000      -0.522822       -14.2267
  41   1.0000      -0.506058       -13.7705
  42   1.0000      -0.495144       -13.4735
  43   1.0000      -0.489123       -13.3097
  44   1.0000      -0.479688       -13.0530
  45   1.0000      -0.477548       -12.9947
  46   1.0000      -0.470018       -12.7898
  47   1.0000      -0.464866       -12.6497
  48   1.0000      -0.456268       -12.4157
  49   1.0000      -0.428363       -11.6563
  50   1.0000      -0.358021        -9.7422
  51   1.0000      -0.353038        -9.6066
  52   1.0000      -0.337518        -9.1843
  53   1.0000      -0.331358        -9.0167
  54   0.0000      -0.185280        -5.0417
  55   0.0000      -0.175245        -4.7687
  56   0.0000      -0.113390        -3.0855
  57   0.0000      -0.109904        -2.9906
  58   0.0000      -0.084375        -2.2960

MULLIKEN ATOMIC CHARGES AND SPIN POPULATIONS
--------------------------------------------
   0 N :   -0.119765    0.004532
   1 C :   -0.113750    0.006030
   2 C :    0.085167   -0.000909
   3 O :   -0.332379    0.002208
   4 C :   -0.288135   -0.065842
   5 C :   -0.089985    0.997921
   6 C :   -0.268192   -0.051062
   7 C :   -0.280167    0.013355
   8 N :   -0.371225    0.000875
   9 H :    0.163035   -0.048324
  10 H :    0.162373    0.053256
  11 H :    0.164403    0.013820
  12 H :    0.224027    0.000755
  13 H :    0.221225   -0.000844
  14 H :    0.334922   -0.000315
  15 H :    0.334220    0.001106
  16 H :    0.255320    0.000143
  17 C :    0.178266   -0.001997
  18 N :   -0.103535    0.000073
  19 H :    0.237526   -0.000002
  20 O :   -0.318887    0.002637
  21 H :    0.335124    0.000015
  22 C :   -0.447266   -0.000018
  23 H :    0.181274   -0.000019
  24 H :    0.165380    0.000001
  25 H :    0.197792    0.000026
  26 C :   -0.544182    0.000377
  27 H :    0.184127   -0.000009
  28 H :    0.199734   -0.000042
  29 H :    0.149629    0.000042
  30 H :    0.151279   -0.001216
  31 H :    0.155062    0.044491
  32 H :    0.197582    0.028935
Sum of atomic charges         :    1.0000000

LOEWDIN ATOMIC CHARGES AND SPIN POPULATIONS
-------------------------------------------
   0 N :    0.060640    0.004013
   1 C :   -0.037719    0.003959
   2 C :   -0.097966    0.000071
   3 O :   -0.199617    0.002205
   4 C :   -0.060356    0.008465
   5 C :   -0.034854    0.825576
   6 C :   -0.083220    0.011510
   7 C :    0.028591    0.014622
   8 N :    0.342779    0.001914
   9 H :    0.057605    0.007454
  10 H :    0.059745    0.041602
  11 H :    0.058717    0.011362
  12 H :    0.063682    0.000321
  13 H :    0.063245    0.000241
  14 H :    0.124484    0.000079
  15 H :    0.126805    0.000818
  16 H :    0.091879    0.000295
  17 C :   -0.099447   -0.000223
  18 N :    0.051624   -0.000261
  19 H :    0.083396    0.000043
  20 O :   -0.191079    0.002525
  21 H :    0.127028    0.000111
  22 C :    0.020732    0.000004
  23 H :    0.038882   -0.000015
  24 H :    0.035178   -0.000008
  25 H :    0.054321    0.000002
  26 C :   -0.035538    0.000018
  27 H :    0.054986   -0.000023
  28 H :    0.062007   -0.000028
  29 H :    0.035532    0.000041
  30 H :    0.064074   -0.000602
  31 H :    0.061431    0.039097
  32 H :    0.072434    0.024814

  Mayer bond orders larger than 0.100000
B(  0-N ,  1-C ) :   1.0276 B(  0-N , 16-H ) :   0.8966 B(  0-N , 17-C ) :   1.1938
B(  1-C ,  2-C ) :   0.9055 B(  1-C ,  4-C ) :   0.9391 B(  1-C , 20-O ) :   0.1238
B(  1-C , 30-H ) :   0.9768 B(  2-C ,  3-O ) :   1.8439 B(  2-C , 18-N ) :   1.2137
B(  4-C ,  5-C ) :   0.9745 B(  4-C , 31-H ) :   0.9554 B(  4-C , 32-H ) :   0.9456
B(  5-C ,  6-C ) :   1.0013 B(  5-C ,  9-H ) :   0.9669 B(  6-C ,  7-C ) :   0.9700
B(  6-C , 10-H ) :   0.9390 B(  6-C , 11-H ) :   0.9521 B(  7-C ,  8-N ) :   0.8727
B(  7-C , 12-H ) :   0.9335 B(  7-C , 13-H ) :   0.9374 B(  8-N , 14-H ) :   0.8847
B(  8-N , 15-H ) :   0.8824 B(  8-N , 21-H ) :   0.8836 B( 17-C , 20-O ) :   1.8615
B( 17-C , 26-C ) :   0.9001 B( 18-N , 19-H ) :   0.9264 B( 18-N , 22-C ) :   0.9650
B( 22-C , 23-H ) :   0.9534 B( 22-C , 24-H ) :   0.9588 B( 22-C , 25-H ) :   0.9451
B( 26-C , 27-H ) :   0.9580 B( 26-C , 28-H ) :   0.9498 B( 26-C , 29-H ) :   0.9745

FINAL SINGLE POINT ENERGY      -668.587441411070

DIPOLE MOMENT
-------------
                                X             Y             Z
Electronic contribution:     -1.65845      -4.91788      -0.06369
Nuclear contribution   :      3.86420      12.03423      -1.09652
                        -----------------------------------------
Total Dipole Moment    :      2.20575       7.11635      -1.16020
                        -----------------------------------------
Magnitude (a.u.)       :      7.54014
Magnitude (Debye)      :     19.16552

Rotational constants in cm-1:     0.019579     0.013319     0.008990
Rotational constants in MHz :   586.972327   399.294273   269.528123

                             ****ORCA TERMINATED NORMALLY****
TOTAL RUN TIME: 0 days 0 hours 13 minutes 13 seconds 237 msec
