                         Program Version 5.0.4 -  RELEASE  -
|  1> ! B3LYP EPR-II AUTOAUX
|  2> %pal nprocs 16 end
|  3> *XYZFile 0 2 opt.xyz
|  4> %EPRNMR
|  5>         GTENSOR   TRUE
|  6>         NUCLEI    = 9,10,11,12,29,30,31,32 {SHIFT, AISO, ADIP, AORB}
|  7>         ORI       GIAO
|  8> END
|  9>
| 10>                          ****END OF INPUT****

CARTESIAN COORDINATES (ANGSTROEM)
---------------------------------
  N      1.596233   -0.802325    0.380239
  C      1.093065    0.224062   -0.517746
  C      1.163026    1.562899    0.246626
  O      1.332755    1.604603    1.466997
  C     -0.339554   -0.078626   -1.036496
  C     -1.416718   -0.158896    0.057323
  C     -2.799088   -0.535189   -0.509134
  C     -3.864598   -0.610713    0.551400
  N     -5.122776   -1.133630    0.174909
  H     -3.915912    0.192393    1.285318
  H     -5.751476   -1.271656    0.957200
  H     -5.054199   -1.990053   -0.364279
  H      1.682364   -0.522745    1.349190
  C      2.130897   -1.974181   -0.075211
  N      1.004062    2.675092   -0.527857
  H      0.901362    2.549278   -1.523359
  O      2.150056   -2.272414   -1.270908
  C      2.701003   -2.901005    0.994720
  H      2.196582   -3.868187    0.921230
  H      3.761251   -3.063994    0.782275
  H      2.591529   -2.513043    2.010937
  C      1.018658    4.031929    0.007896
  H      1.848554    4.610126   -0.412159
  H      0.077506    4.548663   -0.207610
  H      1.147128    3.960495    1.087948
  H      1.758368    0.272244   -1.389077
  H     -0.616496    0.685605   -1.775209
  H     -0.280887   -1.029132   -1.577500
  H     -1.493324    0.802729    0.581918
  H     -1.121829   -0.900608    0.807506
  H     -3.082187    0.197691   -1.287982
  H     -2.725848   -1.504583   -1.026180

 Total Charge           Charge          ....    0
 Multiplicity           Mult            ....    2
 Number of Electrons    NEL             ....  109
 Basis Dimension        Dim             ....  364

ORBITAL ENERGIES
----------------
                 SPIN UP ORBITALS
  NO   OCC          E(Eh)            E(eV)
   0   1.0000     -19.121376      -520.3191
   1   1.0000     -19.097950      -519.6817
   2   1.0000     -14.371098      -391.0575
   3   1.0000     -14.347435      -390.4136
   4   1.0000     -14.333891      -390.0450
   5   1.0000     -10.302312      -280.3402
   6   1.0000     -10.285972      -279.8955
   7   1.0000     -10.237275      -278.5704
   8   1.0000     -10.224411      -278.2204
   9   1.0000     -10.198166      -277.5062
  10   1.0000     -10.188171      -277.2342
  11   1.0000     -10.183923      -277.1186
  12   1.0000     -10.181857      -277.0624
  13   1.0000     -10.178644      -276.9750
  14   1.0000      -1.044030       -28.4095
  15   1.0000      -1.019760       -27.7491
  16   1.0000      -0.930491       -25.3199
  17   1.0000      -0.914503       -24.8849
  18   1.0000      -0.896644       -24.3989
  19   1.0000      -0.797548       -21.7024
  20   1.0000      -0.758751       -20.6467
  21   1.0000      -0.725846       -19.7513
  22   1.0000      -0.709661       -19.3109
  23   1.0000      -0.664373       -18.0785
  24   1.0000      -0.612277       -16.6609
  25   1.0000      -0.596499       -16.2316
  26   1.0000      -0.580472       -15.7955
  27   1.0000      -0.561345       -15.2750
  28   1.0000      -0.535894       -14.5824
  29   1.0000      -0.504536       -13.7291
  30   1.0000      -0.479039       -13.0353
  31   1.0000      -0.471089       -12.8190
  32   1.0000      -0.466531       -12.6949
  33   1.0000      -0.460516       -12.5313
  34   1.0000      -0.450062       -12.2468
  35   1.0000      -0.446756       -12.1568
  36   1.0000      -0.441202       -12.0057
  37   1.0000      -0.426073       -11.5940
  38   1.0000      -0.409896       -11.1538
  39   1.0000      -0.401845       -10.9348
  40   1.0000      -0.400074       -10.8866
  41   1.0000      -0.389543       -10.6000
  42   1.0000      -0.382849       -10.4178
  43   1.0000      -0.374822       -10.1994
  44   1.0000      -0.364662        -9.9230
  45   1.0000      -0.356050        -9.6886
  46   1.0000      -0.339274        -9.2321
  47   1.0000      -0.335376        -9.1260
  48   1.0000      -0.326314        -8.8795
  49   1.0000      -0.314150        -8.5485
  50   1.0000      -0.269039        -7.3209
  51   1.0000      -0.268521        -7.3068
  52   1.0000      -0.247224        -6.7273
  53   1.0000      -0.244019        -6.6401
  54   1.0000      -0.143431        -3.9030
  55   0.0000       0.006954         0.1892
  56   0.0000       0.012726         0.3463
  57   0.0000       0.026630         0.7246
  58   0.0000       0.029576         0.8048
  59   0.0000       0.034748         0.9455

                 SPIN DOWN ORBITALS
  NO   OCC          E(Eh)            E(eV)
   0   1.0000     -19.121376      -520.3191
   1   1.0000     -19.097950      -519.6816
   2   1.0000     -14.371098      -391.0575
   3   1.0000     -14.347432      -390.4135
   4   1.0000     -14.330002      -389.9392
   5   1.0000     -10.302312      -280.3402
   6   1.0000     -10.285972      -279.8955
   7   1.0000     -10.237281      -278.5706
   8   1.0000     -10.224411      -278.2204
   9   1.0000     -10.188168      -277.2342
  10   1.0000     -10.185924      -277.1731
  11   1.0000     -10.183923      -277.1186
  12   1.0000     -10.182382      -277.0767
  13   1.0000     -10.178468      -276.9702
  14   1.0000      -1.044030       -28.4095
  15   1.0000      -1.019759       -27.7491
  16   1.0000      -0.930491       -25.3199
  17   1.0000      -0.914497       -24.8847
  18   1.0000      -0.885180       -24.0870
  19   1.0000      -0.796784       -21.6816
  20   1.0000      -0.756687       -20.5905
  21   1.0000      -0.725771       -19.7492
  22   1.0000      -0.706637       -19.2286
  23   1.0000      -0.659953       -17.9582
  24   1.0000      -0.607621       -16.5342
  25   1.0000      -0.596495       -16.2314
  26   1.0000      -0.570037       -15.5115
  27   1.0000      -0.560675       -15.2568
  28   1.0000      -0.535865       -14.5816
  29   1.0000      -0.500687       -13.6244
  30   1.0000      -0.478697       -13.0260
  31   1.0000      -0.470859       -12.8127
  32   1.0000      -0.465692       -12.6721
  33   1.0000      -0.459716       -12.5095
  34   1.0000      -0.448602       -12.2071
  35   1.0000      -0.445001       -12.1091
  36   1.0000      -0.436404       -11.8752
  37   1.0000      -0.425656       -11.5827
  38   1.0000      -0.407371       -11.0851
  39   1.0000      -0.400346       -10.8940
  40   1.0000      -0.398544       -10.8449
  41   1.0000      -0.389130       -10.5888
  42   1.0000      -0.379518       -10.3272
  43   1.0000      -0.373331       -10.1589
  44   1.0000      -0.361710        -9.8426
  45   1.0000      -0.354073        -9.6348
  46   1.0000      -0.335066        -9.1176
  47   1.0000      -0.331501        -9.0206
  48   1.0000      -0.323652        -8.8070
  49   1.0000      -0.284354        -7.7377
  50   1.0000      -0.269024        -7.3205
  51   1.0000      -0.268500        -7.3063
  52   1.0000      -0.247161        -6.7256
  53   1.0000      -0.244015        -6.6400
  54   0.0000      -0.012428        -0.3382
  55   0.0000       0.007056         0.1920
  56   0.0000       0.012846         0.3496
  57   0.0000       0.026865         0.7310
  58   0.0000       0.029621         0.8060

MULLIKEN ATOMIC CHARGES AND SPIN POPULATIONS
--------------------------------------------
   0 N :   -0.115601    0.000006
   1 C :   -0.127694    0.000871
   2 C :    0.088918   -0.000344
   3 O :   -0.334158    0.000032
   4 C :   -0.281347   -0.001428
   5 C :   -0.261098    0.011261
   6 C :   -0.242237   -0.027174
   7 C :   -0.256441    0.818623
   8 N :   -0.399743    0.162846
   9 H :    0.146267   -0.024626
  10 H :    0.227734   -0.001265
  11 H :    0.225624    0.001936
  12 H :    0.252808    0.000000
  13 C :    0.170348   -0.000220
  14 N :   -0.092134   -0.000011
  15 H :    0.230449    0.000006
  16 O :   -0.329049    0.000013
  17 C :   -0.554375    0.000073
  18 H :    0.184976    0.000005
  19 H :    0.185616   -0.000002
  20 H :    0.149131    0.000000
  21 C :   -0.459248    0.000010
  22 H :    0.163360   -0.000000
  23 H :    0.161809    0.000000
  24 H :    0.200627    0.000002
  25 H :    0.164386    0.000006
  26 H :    0.126409    0.000185
  27 H :    0.178510    0.000180
  28 H :    0.149058   -0.000408
  29 H :    0.167257   -0.000515
  30 H :    0.138327    0.048182
  31 H :    0.141513    0.011756
Sum of atomic charges         :    0.0000000

LOEWDIN ATOMIC CHARGES AND SPIN POPULATIONS
-------------------------------------------
   0 N :    0.065044    0.000069
   1 C :   -0.048362   -0.000032
   2 C :   -0.091824    0.000001
   3 O :   -0.195953   -0.000005
   4 C :   -0.060748    0.001048
   5 C :   -0.069138    0.008315
   6 C :   -0.096869    0.017254
   7 C :   -0.134058    0.717768
   8 N :   -0.016223    0.169781
   9 H :    0.033223    0.015487
  10 H :    0.061669    0.008699
  11 H :    0.063316    0.012613
  12 H :    0.090546    0.000006
  13 C :   -0.104553   -0.000012
  14 N :    0.041382   -0.000005
  15 H :    0.079326    0.000021
  16 O :   -0.200753    0.000003
  17 C :   -0.043208    0.000017
  18 H :    0.053659    0.000000
  19 H :    0.054129   -0.000001
  20 H :    0.033624    0.000001
  21 C :    0.010900    0.000002
  22 H :    0.031666   -0.000001
  23 H :    0.031378   -0.000000
  24 H :    0.055124    0.000001
  25 H :    0.066927    0.000016
  26 H :    0.041515    0.000506
  27 H :    0.058497    0.000085
  28 H :    0.047346    0.000059
  29 H :    0.050749    0.000298
  30 H :    0.046536    0.035992
  31 H :    0.045136    0.012013

  Mayer bond orders larger than 0.100000
B(  0-N ,  1-C ) :   1.0208 B(  0-N , 12-H ) :   0.8927 B(  0-N , 13-C ) :   1.2108
B(  1-C ,  2-C ) :   0.8995 B(  1-C ,  4-C ) :   0.9283 B(  1-C , 16-O ) :   0.1432
B(  1-C , 25-H ) :   0.9726 B(  2-C ,  3-O ) :   1.8702 B(  2-C , 14-N ) :   1.1844
B(  4-C ,  5-C ) :   0.9611 B(  4-C , 26-H ) :   0.9778 B(  4-C , 27-H ) :   0.9632
B(  5-C ,  6-C ) :   0.9720 B(  5-C , 28-H ) :   0.9664 B(  5-C , 29-H ) :   0.9679
B(  6-C ,  7-C ) :   0.9863 B(  6-C , 30-H ) :   0.9609 B(  6-C , 31-H ) :   0.9715
B(  7-C ,  8-N ) :   1.1766 B(  7-C ,  9-H ) :   0.9719 B(  8-N , 10-H ) :   0.9418
B(  8-N , 11-H ) :   0.9413 B( 13-C , 16-O ) :   1.8570 B( 13-C , 17-C ) :   0.8939
B( 14-N , 15-H ) :   0.9299 B( 14-N , 21-C ) :   0.9701 B( 17-C , 18-H ) :   0.9598
B( 17-C , 19-H ) :   0.9583 B( 17-C , 20-H ) :   0.9761 B( 21-C , 22-H ) :   0.9609
B( 21-C , 23-H ) :   0.9588 B( 21-C , 24-H ) :   0.9431

FINAL SINGLE POINT ENERGY      -668.229334781660

DIPOLE MOMENT
-------------
                                X             Y             Z
Electronic contribution:      7.59340      -0.58669      -0.17205
Nuclear contribution   :     -8.25787       1.45412       0.17825
                        -----------------------------------------
Total Dipole Moment    :     -0.66447       0.86743       0.00620
                        -----------------------------------------
Magnitude (a.u.)       :      1.09270
Magnitude (Debye)      :      2.77741

Rotational constants in cm-1:     0.019564     0.013286     0.008985
Rotational constants in MHz :   586.499347   398.317486   269.352650

CHEMICAL SHIELDING SUMMARY (ppm)  --  Orbital contribution
----------------------------------------------------------

  Nucleus  Element    Isotropic     Anisotropy
  -------  -------  ------------   ------------
      8       N          174.161         52.509
      9       H           27.703          7.369
     10       H           29.083         10.779
     11       H           29.592          8.522
     28       H           30.769          5.062
     29       H           30.251          5.158
     30       H           29.468          5.618
     31       H           30.124          4.691

                             ****ORCA TERMINATED NORMALLY****
TOTAL RUN TIME: 0 days 0 hours 4 minutes 25 seconds 208 msec
