                         Program Version 5.0.4 -  RELEASE  -
|  1> ! M062X def2-TZVP OPT FREQ
|  2> %pal nprocs 16 end
|  3> *XYZFile 0 2 opt.xyz
|  4>
|  5>                          ****END OF INPUT****
 Total Charge           Charge          ....    0
 Multiplicity           Mult            ....    2
 Number of Electrons    NEL             ....  109
FINAL SINGLE POINT ENERGY      -668.454014499473
FINAL SINGLE POINT ENERGY      -668.456986204155
FINAL SINGLE POINT ENERGY      -668.457157684945
FINAL SINGLE POINT ENERGY      -668.457263116413
FINAL SINGLE POINT ENERGY      -668.457290500492
FINAL SINGLE POINT ENERGY      -668.457302149093
FINAL SINGLE POINT ENERGY      -668.457305859257
FINAL SINGLE POINT ENERGY      -668.457309006381
FINAL SINGLE POINT ENERGY      -668.457312319502
FINAL SINGLE POINT ENERGY      -668.457317794357
FINAL SINGLE POINT ENERGY      -668.457319120102
FINAL SINGLE POINT ENERGY      -668.457323315775
FINAL SINGLE POINT ENERGY      -668.457331280265
FINAL SINGLE POINT ENERGY      -668.457330435261
FINAL SINGLE POINT ENERGY      -668.457331805274
FINAL SINGLE POINT ENERGY      -668.457333491666
                    ***********************HURRAY********************

CARTESIAN COORDINATES (ANGSTROEM)
---------------------------------
  N      1.634499   -0.832668    0.383381
  C      1.141575    0.182085   -0.514222
  C      1.139526    1.502332    0.255428
  O      1.333357    1.545190    1.455887
  C     -0.260510   -0.148964   -1.051301
  C     -1.343779   -0.102579    0.016971
  C     -2.708814   -0.516853   -0.522616
  C     -3.780352   -0.414518    0.506309
  N     -5.033335   -0.935024    0.185219
  H     -3.797881    0.454260    1.153650
  H     -5.703138   -0.937830    0.939229
  H     -5.009515   -1.829418   -0.284532
  H      1.732139   -0.558960    1.350118
  C      2.135063   -2.001894   -0.080865
  N      0.881993    2.596901   -0.493277
  H      0.712544    2.471239   -1.476824
  O      2.127301   -2.287270   -1.264224
  C      2.710660   -2.930934    0.962071
  H      2.271909   -3.917683    0.825927
  H      3.782998   -3.018006    0.788560
  H      2.536832   -2.589172    1.980761
  C      0.773948    3.922564    0.080029
  H      1.346206    4.636168   -0.511211
  H     -0.265047    4.251675    0.133576
  H      1.181301    3.880353    1.086419
  H      1.828473    0.256955   -1.362700
  H     -0.508521    0.543671   -1.861842
  H     -0.198264   -1.142871   -1.498909
  H     -1.415124    0.910342    0.428345
  H     -1.069250   -0.755184    0.849810
  H     -2.953319    0.100824   -1.402066
  H     -2.653967   -1.547899   -0.894177

 Multiplicity           Mult            ....    2
 Number of Electrons    NEL             ....  109
 Basis Dimension        Dim             ....  542

ORBITAL ENERGIES
----------------
                 SPIN UP ORBITALS
  NO   OCC          E(Eh)            E(eV)
   0   1.0000     -19.604587      -533.4679
   1   1.0000     -19.581649      -532.8437
   2   1.0000     -14.784760      -402.3138
   3   1.0000     -14.763564      -401.7370
   4   1.0000     -14.749439      -401.3526
   5   1.0000     -10.651224      -289.8345
   6   1.0000     -10.635296      -289.4011
   7   1.0000     -10.587171      -288.0916
   8   1.0000     -10.576102      -287.7904
   9   1.0000     -10.548369      -287.0357
  10   1.0000     -10.538639      -286.7709
  11   1.0000     -10.534733      -286.6647
  12   1.0000     -10.531556      -286.5782
  13   1.0000     -10.529698      -286.5276
  14   1.0000      -1.179033       -32.0831
  15   1.0000      -1.155115       -31.4323
  16   1.0000      -1.046651       -28.4808
  17   1.0000      -1.032808       -28.1041
  18   1.0000      -1.013654       -27.5829
  19   1.0000      -0.908678       -24.7264
  20   1.0000      -0.864509       -23.5245
  21   1.0000      -0.826461       -22.4892
  22   1.0000      -0.807941       -21.9852
  23   1.0000      -0.759134       -20.6571
  24   1.0000      -0.704150       -19.1609
  25   1.0000      -0.683086       -18.5877
  26   1.0000      -0.671139       -18.2626
  27   1.0000      -0.646946       -17.6043
  28   1.0000      -0.619974       -16.8704
  29   1.0000      -0.589125       -16.0309
  30   1.0000      -0.564704       -15.3664
  31   1.0000      -0.552989       -15.0476
  32   1.0000      -0.548937       -14.9373
  33   1.0000      -0.544252       -14.8099
  34   1.0000      -0.531937       -14.4747
  35   1.0000      -0.526472       -14.3260
  36   1.0000      -0.520314       -14.1585
  37   1.0000      -0.502647       -13.6777
  38   1.0000      -0.486492       -13.2381
  39   1.0000      -0.477175       -12.9846
  40   1.0000      -0.468940       -12.7605
  41   1.0000      -0.465730       -12.6732
  42   1.0000      -0.455086       -12.3835
  43   1.0000      -0.449839       -12.2407
  44   1.0000      -0.436948       -11.8900
  45   1.0000      -0.430616       -11.7177
  46   1.0000      -0.409555       -11.1446
  47   1.0000      -0.403613       -10.9829
  48   1.0000      -0.394324       -10.7301
  49   1.0000      -0.383893       -10.4463
  50   1.0000      -0.345856        -9.4112
  51   1.0000      -0.336096        -9.1456
  52   1.0000      -0.325099        -8.8464
  53   1.0000      -0.314198        -8.5498
  54   1.0000      -0.197429        -5.3723
  55   0.0000       0.042883         1.1669
  56   0.0000       0.056175         1.5286
  57   0.0000       0.066378         1.8062
  58   0.0000       0.071016         1.9324
  59   0.0000       0.072163         1.9637

                 SPIN DOWN ORBITALS
  NO   OCC          E(Eh)            E(eV)
   0   1.0000     -19.604587      -533.4679
   1   1.0000     -19.581649      -532.8437
   2   1.0000     -14.784761      -402.3138
   3   1.0000     -14.763562      -401.7370
   4   1.0000     -14.746631      -401.2762
   5   1.0000     -10.651224      -289.8345
   6   1.0000     -10.635296      -289.4011
   7   1.0000     -10.587176      -288.0917
   8   1.0000     -10.576102      -287.7904
   9   1.0000     -10.541724      -286.8549
  10   1.0000     -10.538640      -286.7710
  11   1.0000     -10.534733      -286.6647
  12   1.0000     -10.531988      -286.5900
  13   1.0000     -10.529567      -286.5241
  14   1.0000      -1.179034       -32.0831
  15   1.0000      -1.155115       -31.4323
  16   1.0000      -1.046651       -28.4808
  17   1.0000      -1.032800       -28.1039
  18   1.0000      -0.999810       -27.2062
  19   1.0000      -0.907648       -24.6984
  20   1.0000      -0.861932       -23.4544
  21   1.0000      -0.826208       -22.4823
  22   1.0000      -0.804486       -21.8912
  23   1.0000      -0.754518       -20.5315
  24   1.0000      -0.699243       -19.0274
  25   1.0000      -0.683084       -18.5877
  26   1.0000      -0.658110       -17.9081
  27   1.0000      -0.646270       -17.5859
  28   1.0000      -0.619901       -16.8684
  29   1.0000      -0.583777       -15.8854
  30   1.0000      -0.563990       -15.3470
  31   1.0000      -0.552710       -15.0400
  32   1.0000      -0.547793       -14.9062
  33   1.0000      -0.543275       -14.7833
  34   1.0000      -0.528366       -14.3776
  35   1.0000      -0.523728       -14.2514
  36   1.0000      -0.513409       -13.9706
  37   1.0000      -0.501874       -13.6567
  38   1.0000      -0.484137       -13.1740
  39   1.0000      -0.473365       -12.8809
  40   1.0000      -0.468554       -12.7500
  41   1.0000      -0.463481       -12.6120
  42   1.0000      -0.453021       -12.3273
  43   1.0000      -0.445666       -12.1272
  44   1.0000      -0.434037       -11.8108
  45   1.0000      -0.427220       -11.6252
  46   1.0000      -0.402907       -10.9637
  47   1.0000      -0.396655       -10.7935
  48   1.0000      -0.390886       -10.6366
  49   1.0000      -0.355373        -9.6702
  50   1.0000      -0.345772        -9.4089
  51   1.0000      -0.336065        -9.1448
  52   1.0000      -0.325092        -8.8462
  53   1.0000      -0.314098        -8.5470
  54   0.0000       0.021084         0.5737
  55   0.0000       0.042158         1.1472
  56   0.0000       0.055973         1.5231
  57   0.0000       0.063584         1.7302
  58   0.0000       0.070394         1.9155

MULLIKEN ATOMIC CHARGES AND SPIN POPULATIONS
--------------------------------------------
   0 N :   -0.391577    0.000071
   1 C :   -0.090756   -0.000414
   2 C :    0.367558    0.000557
   3 O :   -0.412587   -0.000066
   4 C :   -0.339819    0.004143
   5 C :   -0.286661    0.036599
   6 C :   -0.260223   -0.082888
   7 C :   -0.118282    0.876926
   8 N :   -0.493923    0.144492
   9 H :    0.142800   -0.037172
  10 H :    0.241058   -0.002273
  11 H :    0.238251   -0.000679
  12 H :    0.268026    0.000065
  13 C :    0.389377    0.000189
  14 N :   -0.345972   -0.000082
  15 H :    0.246491    0.000086
  16 O :   -0.414929    0.000001
  17 C :   -0.458356   -0.000062
  18 H :    0.157505    0.000002
  19 H :    0.158844    0.000001
  20 H :    0.129111    0.000009
  21 C :   -0.306728   -0.000021
  22 H :    0.144316   -0.000003
  23 H :    0.144971    0.000005
  24 H :    0.182043   -0.000000
  25 H :    0.192437   -0.000050
  26 H :    0.150212   -0.001548
  27 H :    0.196078   -0.000253
  28 H :    0.142302   -0.004405
  29 H :    0.155173   -0.004647
  30 H :    0.135035    0.056890
  31 H :    0.138226    0.014525
Sum of atomic charges         :   -0.0000000

LOEWDIN ATOMIC CHARGES AND SPIN POPULATIONS
-------------------------------------------
   0 N :    0.145880    0.000051
   1 C :   -0.249075    0.000055
   2 C :   -0.441289    0.000045
   3 O :    0.057658   -0.000010
   4 C :   -0.241682    0.001974
   5 C :   -0.262978    0.007463
   6 C :   -0.295487    0.060050
   7 C :   -0.314157    0.686517
   8 N :   -0.101521    0.183381
   9 H :    0.120047    0.004741
  10 H :    0.159383    0.005047
  11 H :    0.159870    0.007327
  12 H :    0.194734    0.000014
  13 C :   -0.482984   -0.000007
  14 N :    0.100030   -0.000002
  15 H :    0.186496    0.000018
  16 O :    0.050039    0.000005
  17 C :   -0.263287    0.000004
  18 H :    0.137553    0.000000
  19 H :    0.138923   -0.000001
  20 H :    0.122144    0.000002
  21 C :   -0.302507    0.000002
  22 H :    0.116262   -0.000001
  23 H :    0.114655   -0.000000
  24 H :    0.133898    0.000001
  25 H :    0.165128    0.000021
  26 H :    0.135872    0.000433
  27 H :    0.153792    0.000042
  28 H :    0.142338   -0.000330
  29 H :    0.142366    0.001329
  30 H :    0.137393    0.032681
  31 H :    0.140505    0.009148

  Mayer bond orders larger than 0.100000
B(  0-N ,  1-C ) :   0.9257 B(  0-N , 12-H ) :   0.8776 B(  0-N , 13-C ) :   1.2131
B(  1-C ,  2-C ) :   0.9288 B(  1-C ,  4-C ) :   0.8828 B(  1-C , 25-H ) :   0.9956
B(  2-C ,  3-O ) :   1.9164 B(  2-C , 14-N ) :   1.2281 B(  4-C ,  5-C ) :   0.8441
B(  4-C , 26-H ) :   0.9932 B(  4-C , 27-H ) :   0.9694 B(  5-C ,  6-C ) :   0.9123
B(  5-C , 28-H ) :   0.9811 B(  5-C , 29-H ) :   0.9752 B(  6-C ,  7-C ) :   0.9792
B(  6-C , 30-H ) :   0.9467 B(  6-C , 31-H ) :   0.9794 B(  7-C ,  8-N ) :   1.1379
B(  7-C ,  9-H ) :   0.9590 B(  8-N , 10-H ) :   0.9278 B(  8-N , 11-H ) :   0.9227
B( 13-C , 16-O ) :   1.9165 B( 13-C , 17-C ) :   0.9099 B( 14-N , 15-H ) :   0.9184
B( 14-N , 21-C ) :   0.9063 B( 17-C , 18-H ) :   0.9652 B( 17-C , 19-H ) :   0.9568
B( 17-C , 20-H ) :   0.9859 B( 21-C , 22-H ) :   0.9684 B( 21-C , 23-H ) :   0.9688
B( 21-C , 24-H ) :   0.9629

FINAL SINGLE POINT ENERGY      -668.457333999937

DIPOLE MOMENT
-------------
                                X             Y             Z
Electronic contribution:      7.72435      -0.74394      -0.17298
Nuclear contribution   :     -8.44618       1.56284       0.21662
                        -----------------------------------------
Total Dipole Moment    :     -0.72183       0.81890       0.04363
                        -----------------------------------------
Magnitude (a.u.)       :      1.09249
Magnitude (Debye)      :      2.77689

VIBRATIONAL FREQUENCIES
-----------------------

Scaling factor for frequencies =  1.000000000  (already applied!)

   0:         0.00 cm**-1
   1:         0.00 cm**-1
   2:         0.00 cm**-1
   3:         0.00 cm**-1
   4:         0.00 cm**-1
   5:         0.00 cm**-1
   6:        23.73 cm**-1
   7:        49.09 cm**-1
   8:        62.70 cm**-1
   9:        78.70 cm**-1
  10:        89.56 cm**-1
  11:       100.08 cm**-1
  12:       103.66 cm**-1
  13:       111.30 cm**-1
  14:       130.94 cm**-1
  15:       138.72 cm**-1
  16:       149.20 cm**-1
  17:       167.77 cm**-1
  18:       212.46 cm**-1
  19:       246.22 cm**-1
  20:       300.80 cm**-1
  21:       319.61 cm**-1
  22:       333.65 cm**-1
  23:       353.91 cm**-1
  24:       392.01 cm**-1
  25:       428.49 cm**-1
  26:       473.18 cm**-1
  27:       512.06 cm**-1
  28:       547.71 cm**-1
  29:       575.05 cm**-1
  30:       607.27 cm**-1
  31:       640.38 cm**-1
  32:       665.33 cm**-1
  33:       689.74 cm**-1
  34:       699.16 cm**-1
  35:       755.07 cm**-1
  36:       808.19 cm**-1
  37:       864.52 cm**-1
  38:       892.34 cm**-1
  39:       943.63 cm**-1
  40:       989.50 cm**-1
  41:      1015.66 cm**-1
  42:      1021.31 cm**-1
  43:      1061.75 cm**-1
  44:      1062.56 cm**-1
  45:      1074.45 cm**-1
  46:      1083.46 cm**-1
  47:      1105.42 cm**-1
  48:      1140.73 cm**-1
  49:      1155.12 cm**-1
  50:      1178.62 cm**-1
  51:      1199.18 cm**-1
  52:      1227.56 cm**-1
  53:      1229.26 cm**-1
  54:      1245.33 cm**-1
  55:      1272.69 cm**-1
  56:      1284.38 cm**-1
  57:      1301.04 cm**-1
  58:      1325.97 cm**-1
  59:      1334.39 cm**-1
  60:      1369.24 cm**-1
  61:      1386.09 cm**-1
  62:      1408.75 cm**-1
  63:      1415.01 cm**-1
  64:      1445.37 cm**-1
  65:      1465.74 cm**-1
  66:      1475.08 cm**-1
  67:      1484.93 cm**-1
  68:      1489.63 cm**-1
  69:      1491.83 cm**-1
  70:      1498.86 cm**-1
  71:      1505.29 cm**-1
  72:      1512.71 cm**-1
  73:      1547.45 cm**-1
  74:      1588.60 cm**-1
  75:      1642.87 cm**-1
  76:      1775.86 cm**-1
  77:      1789.33 cm**-1
  78:      2971.53 cm**-1
  79:      3039.98 cm**-1
  80:      3054.54 cm**-1
  81:      3063.20 cm**-1
  82:      3075.57 cm**-1
  83:      3078.48 cm**-1
  84:      3088.79 cm**-1
  85:      3106.62 cm**-1
  86:      3129.13 cm**-1
  87:      3145.43 cm**-1
  88:      3171.38 cm**-1
  89:      3182.05 cm**-1
  90:      3190.52 cm**-1
  91:      3194.07 cm**-1
  92:      3552.52 cm**-1
  93:      3617.40 cm**-1
  94:      3660.03 cm**-1
  95:      3660.48 cm**-1

IR SPECTRUM
-----------

 Mode   freq       eps      Int      T**2         TX        TY        TZ
       cm**-1   L/(mol*cm) km/mol    a.u.
----------------------------------------------------------------------------
  6:     23.73   0.000295    1.49  0.003878  (-0.061647  0.001011  0.008731)
  7:     49.09   0.000283    1.43  0.001802  ( 0.041836 -0.002993 -0.006508)
  8:     62.70   0.000050    0.25  0.000247  ( 0.008663  0.004709 -0.012253)
  9:     78.70   0.001210    6.11  0.004796  (-0.060438 -0.022816  0.024963)
 10:     89.56   0.001943    9.82  0.006771  (-0.076158 -0.029725 -0.009356)
 11:    100.08   0.000325    1.64  0.001015  (-0.004969 -0.025223 -0.018815)
 12:    103.66   0.000710    3.59  0.002138  ( 0.025715  0.035819 -0.013914)
 13:    111.30   0.000546    2.76  0.001531  ( 0.011600 -0.036824 -0.006321)
 14:    130.94   0.000040    0.20  0.000095  ( 0.002103  0.009516  0.000557)
 15:    138.72   0.001056    5.34  0.002376  (-0.037575  0.031037 -0.000918)
 16:    149.20   0.001388    7.02  0.002904  ( 0.034404 -0.039529 -0.012564)
 17:    167.77   0.000652    3.30  0.001213  ( 0.026290  0.020215 -0.010659)
 18:    212.46   0.000287    1.45  0.000422  (-0.012620 -0.012202  0.010663)
 19:    246.22   0.000772    3.90  0.000979  (-0.012070  0.027163 -0.009745)
 20:    300.80   0.000563    2.84  0.000584  (-0.011101  0.021336 -0.002301)
 21:    319.61   0.005104   25.79  0.004983  ( 0.048552 -0.046507 -0.021523)
 22:    333.65   0.001774    8.96  0.001659  (-0.036807  0.017446 -0.000263)
 23:    353.91   0.001137    5.74  0.001002  (-0.020699 -0.000868  0.023941)
 24:    392.01   0.003956   19.99  0.003149  ( 0.001065  0.056086  0.001549)
 25:    428.49   0.007937   40.11  0.005781  ( 0.075304  0.000827  0.010457)
 26:    473.18   0.010705   54.10  0.007060  (-0.074472 -0.025350  0.029513)
 27:    512.06   0.002732   13.80  0.001665  (-0.022058 -0.027393  0.020684)
 28:    547.71   0.014121   71.36  0.008046  ( 0.089547  0.004622 -0.002377)
 29:    575.05   0.007588   38.35  0.004118  (-0.032062 -0.044720  0.033015)
 30:    607.27   0.008567   43.30  0.004403  (-0.023846  0.005759 -0.061651)
 31:    640.38   0.001841    9.30  0.000897  ( 0.021133 -0.020862 -0.003929)
 32:    665.33   0.001234    6.24  0.000579  (-0.022766 -0.006720  0.003921)
 33:    689.74   0.040244  203.38  0.018208  (-0.113049  0.027275 -0.068438)
 34:    699.16   0.000606    3.06  0.000271  (-0.015258  0.000317 -0.006132)
 35:    755.07   0.001272    6.43  0.000526  (-0.013879  0.017868 -0.003710)
 36:    808.19   0.000509    2.57  0.000196  (-0.008421 -0.009466  0.005990)
 37:    864.52   0.000601    3.04  0.000217  (-0.005090 -0.011928 -0.006994)
 38:    892.34   0.000494    2.49  0.000173  (-0.002678 -0.006157  0.011294)
 39:    943.63   0.000951    4.81  0.000315  ( 0.009726 -0.007068  0.013038)
 40:    989.50   0.000841    4.25  0.000265  (-0.010050 -0.006770  0.010882)
 41:   1015.66   0.002334   11.80  0.000717  (-0.013618  0.021435  0.008506)
 42:   1021.31   0.001692    8.55  0.000517  (-0.013714  0.015003 -0.010193)
 43:   1061.75   0.000103    0.52  0.000030  ( 0.001001  0.004652 -0.002745)
 44:   1062.56   0.001508    7.62  0.000443  ( 0.019527  0.007211 -0.003073)
 45:   1074.45   0.000964    4.87  0.000280  (-0.000385 -0.011844  0.011808)
 46:   1083.46   0.000100    0.51  0.000029  (-0.004709  0.002322 -0.001133)
 47:   1105.42   0.000548    2.77  0.000155  (-0.009689 -0.001063 -0.007722)
 48:   1140.73   0.000767    3.88  0.000210  ( 0.001755  0.013910  0.003647)
 49:   1155.12   0.001690    8.54  0.000457  ( 0.000563  0.019836 -0.007921)
 50:   1178.62   0.003654   18.46  0.000967  ( 0.003748 -0.028625  0.011573)
 51:   1199.18   0.001781    9.00  0.000464  (-0.013233  0.016465 -0.004168)
 52:   1227.56   0.002903   14.67  0.000738  ( 0.021292 -0.016682  0.002513)
 53:   1229.26   0.001371    6.93  0.000348  ( 0.013772  0.012291 -0.002722)
 54:   1245.33   0.006482   32.76  0.001624  ( 0.016516  0.036764 -0.000046)
 55:   1272.69   0.006987   35.31  0.001713  ( 0.008237 -0.040492 -0.002414)
 56:   1284.38   0.006612   33.41  0.001606  ( 0.036456 -0.016113  0.004215)
 57:   1301.04   0.000937    4.73  0.000225  ( 0.007415  0.012399 -0.004003)
 58:   1325.97   0.004333   21.89  0.001020  (-0.012809  0.027940  0.008658)
 59:   1334.39   0.000066    0.34  0.000016  ( 0.003676  0.000124  0.001419)
 60:   1369.24   0.002458   12.42  0.000560  (-0.000058  0.023604 -0.001732)
 61:   1386.09   0.000591    2.99  0.000133  (-0.001915 -0.009901 -0.005601)
 62:   1408.75   0.007796   39.40  0.001727  ( 0.021378 -0.034250  0.009842)
 63:   1415.01   0.001213    6.13  0.000267  (-0.014910  0.001738  0.006493)
 64:   1445.37   0.002956   14.94  0.000638  (-0.008287  0.006684 -0.022909)
 65:   1465.74   0.004263   21.54  0.000908  ( 0.028925  0.006268  0.005623)
 66:   1475.08   0.003041   15.37  0.000643  (-0.008671 -0.022929 -0.006510)
 67:   1484.93   0.000444    2.24  0.000093  (-0.008269 -0.004703  0.001676)
 68:   1489.63   0.007978   40.32  0.001671  (-0.008782  0.034691  0.019764)
 69:   1491.83   0.007289   36.84  0.001525  ( 0.018754 -0.033737 -0.005909)
 70:   1498.86   0.007161   36.19  0.001491  (-0.010721 -0.036942  0.003365)
 71:   1505.29   0.001424    7.20  0.000295  (-0.000959  0.005210  0.016343)
 72:   1512.71   0.005218   26.37  0.001076  (-0.016323  0.028175  0.004021)
 73:   1547.45   0.101238  511.62  0.020416  (-0.063645  0.126831 -0.016710)
 74:   1588.60   0.026909  135.99  0.005286  ( 0.004586  0.067128 -0.027545)
 75:   1642.87   0.012745   64.41  0.002421  ( 0.035199  0.034083 -0.004505)
 76:   1775.86   0.086097  435.10  0.015129  (-0.001321  0.024567  0.120516)
 77:   1789.33   0.017735   89.62  0.003093  ( 0.026937 -0.042866  0.023020)
 78:   2971.53   0.007983   40.34  0.000838  ( 0.000591  0.006330 -0.028248)
 79:   3039.98   0.001695    8.57  0.000174  ( 0.001661  0.013015  0.001370)
 80:   3054.54   0.004330   21.88  0.000442  (-0.000978 -0.018283 -0.010351)
 81:   3063.20   0.003659   18.49  0.000373  ( 0.006199  0.001944  0.018182)
 82:   3075.57   0.010522   53.17  0.001068  (-0.006897  0.031633 -0.004411)
 83:   3078.48   0.002399   12.12  0.000243  (-0.004494 -0.009011  0.011907)
 84:   3088.79   0.000582    2.94  0.000059  ( 0.002119 -0.002310  0.007000)
 85:   3106.62   0.001821    9.20  0.000183  (-0.003763  0.010730 -0.007322)
 86:   3129.13   0.003585   18.12  0.000358  ( 0.000057 -0.018325  0.004661)
 87:   3145.43   0.002875   14.53  0.000285  (-0.014416 -0.006675  0.005732)
 88:   3171.38   0.000593    3.00  0.000058  (-0.004607 -0.000546  0.006066)
 89:   3182.05   0.001195    6.04  0.000117  ( 0.000060 -0.005696 -0.009209)
 90:   3190.52   0.003149   15.91  0.000308  (-0.002374 -0.012967 -0.011584)
 91:   3194.07   0.000016    0.08  0.000002  ( 0.000144 -0.000414  0.001183)
 92:   3552.52   0.002418   12.22  0.000212  ( 0.011670  0.008422 -0.002294)
 93:   3617.40   0.020142  101.79  0.001738  (-0.002572  0.028982  0.029851)
 94:   3660.03   0.007789   39.36  0.000664  (-0.004314  0.005633 -0.024773)
 95:   3660.48   0.003810   19.26  0.000325  (-0.009292  0.006572  0.013975)

--------------------------
THERMOCHEMISTRY AT 298.15K
--------------------------

Temperature         ... 298.15 K
Pressure            ... 1.00 atm
Total Mass          ... 200.26 AMU

Throughout the following assumptions are being made:
  (1) The electronic state is orbitally nondegenerate
      but the spin degeneracy is treated
  (2) There are no thermally accessible electronically excited states
  (3) Hindered rotations indicated by low frequency modes are not
      treated as such but are treated as vibrations and this may
      cause some error
  (4) All equations used are the standard statistical mechanics
      equations for an ideal gas
  (5) All vibrations are strictly harmonic

freq.      23.73  E(vib)   ...       0.56
freq.      49.09  E(vib)   ...       0.53
freq.      62.70  E(vib)   ...       0.51
freq.      78.70  E(vib)   ...       0.49
freq.      89.56  E(vib)   ...       0.47
freq.     100.08  E(vib)   ...       0.46
freq.     103.66  E(vib)   ...       0.46
freq.     111.30  E(vib)   ...       0.45
freq.     130.94  E(vib)   ...       0.42
freq.     138.72  E(vib)   ...       0.42
freq.     149.20  E(vib)   ...       0.40
freq.     167.77  E(vib)   ...       0.38
freq.     212.46  E(vib)   ...       0.34
freq.     246.22  E(vib)   ...       0.31
freq.     300.80  E(vib)   ...       0.26
freq.     319.61  E(vib)   ...       0.25
freq.     333.65  E(vib)   ...       0.24
freq.     353.91  E(vib)   ...       0.22
freq.     392.01  E(vib)   ...       0.20
freq.     428.49  E(vib)   ...       0.18
freq.     473.18  E(vib)   ...       0.15
freq.     512.06  E(vib)   ...       0.14
freq.     547.71  E(vib)   ...       0.12
freq.     575.05  E(vib)   ...       0.11
freq.     607.27  E(vib)   ...       0.10
freq.     640.38  E(vib)   ...       0.09
freq.     665.33  E(vib)   ...       0.08
freq.     689.74  E(vib)   ...       0.07
freq.     699.16  E(vib)   ...       0.07
freq.     755.07  E(vib)   ...       0.06
freq.     808.19  E(vib)   ...       0.05
freq.     864.52  E(vib)   ...       0.04
freq.     892.34  E(vib)   ...       0.03
freq.     943.63  E(vib)   ...       0.03
freq.     989.50  E(vib)   ...       0.02
freq.    1015.66  E(vib)   ...       0.02
freq.    1021.31  E(vib)   ...       0.02
freq.    1061.75  E(vib)   ...       0.02
freq.    1062.56  E(vib)   ...       0.02
freq.    1074.45  E(vib)   ...       0.02
freq.    1083.46  E(vib)   ...       0.02
freq.    1105.42  E(vib)   ...       0.02
freq.    1140.73  E(vib)   ...       0.01
freq.    1155.12  E(vib)   ...       0.01
freq.    1178.62  E(vib)   ...       0.01
freq.    1199.18  E(vib)   ...       0.01
freq.    1227.56  E(vib)   ...       0.01
freq.    1229.26  E(vib)   ...       0.01
freq.    1245.33  E(vib)   ...       0.01
freq.    1272.69  E(vib)   ...       0.01
freq.    1284.38  E(vib)   ...       0.01
freq.    1301.04  E(vib)   ...       0.01
freq.    1325.97  E(vib)   ...       0.01
freq.    1334.39  E(vib)   ...       0.01
freq.    1369.24  E(vib)   ...       0.01
freq.    1386.09  E(vib)   ...       0.00
freq.    1408.75  E(vib)   ...       0.00
freq.    1415.01  E(vib)   ...       0.00
freq.    1445.37  E(vib)   ...       0.00
freq.    1465.74  E(vib)   ...       0.00
freq.    1475.08  E(vib)   ...       0.00
freq.    1484.93  E(vib)   ...       0.00
freq.    1489.63  E(vib)   ...       0.00
freq.    1491.83  E(vib)   ...       0.00
freq.    1498.86  E(vib)   ...       0.00
freq.    1505.29  E(vib)   ...       0.00
freq.    1512.71  E(vib)   ...       0.00
freq.    1547.45  E(vib)   ...       0.00
freq.    1588.60  E(vib)   ...       0.00
freq.    1642.87  E(vib)   ...       0.00
freq.    1775.86  E(vib)   ...       0.00
freq.    1789.33  E(vib)   ...       0.00
freq.    2971.53  E(vib)   ...       0.00
freq.    3039.98  E(vib)   ...       0.00
freq.    3054.54  E(vib)   ...       0.00
freq.    3063.20  E(vib)   ...       0.00
freq.    3075.57  E(vib)   ...       0.00
freq.    3078.48  E(vib)   ...       0.00
freq.    3088.79  E(vib)   ...       0.00
freq.    3106.62  E(vib)   ...       0.00
freq.    3129.13  E(vib)   ...       0.00
freq.    3145.43  E(vib)   ...       0.00
freq.    3171.38  E(vib)   ...       0.00
freq.    3182.05  E(vib)   ...       0.00
freq.    3190.52  E(vib)   ...       0.00
freq.    3194.07  E(vib)   ...       0.00
freq.    3552.52  E(vib)   ...       0.00
freq.    3617.40  E(vib)   ...       0.00
freq.    3660.03  E(vib)   ...       0.00
freq.    3660.48  E(vib)   ...       0.00

------------
INNER ENERGY
------------

The inner energy is: U= E(el) + E(ZPE) + E(vib) + E(rot) + E(trans)
    E(el)   - is the total energy from the electronic structure calculation
              = E(kin-el) + E(nuc-el) + E(el-el) + E(nuc-nuc)
    E(ZPE)  - the the zero temperature vibrational energy from the frequency calculation
    E(vib)  - the the finite temperature correction to E(ZPE) due to population
              of excited vibrational states
    E(rot)  - is the rotational thermal energy
    E(trans)- is the translational thermal energy

Summary of contributions to the inner energy U:
Electronic energy                ...   -668.45733400 Eh
Zero point energy                ...      0.27804807 Eh     174.48 kcal/mol
Thermal vibrational correction   ...      0.01434556 Eh       9.00 kcal/mol
Thermal rotational correction    ...      0.00141627 Eh       0.89 kcal/mol
Thermal translational correction ...      0.00141627 Eh       0.89 kcal/mol
-----------------------------------------------------------------------
Total thermal energy                   -668.16210782 Eh

Summary of corrections to the electronic energy:
(perhaps to be used in another calculation)
Total thermal correction                  0.01717811 Eh      10.78 kcal/mol
Non-thermal (ZPE) correction              0.27804807 Eh     174.48 kcal/mol
-----------------------------------------------------------------------
Total correction                          0.29522617 Eh     185.26 kcal/mol

--------
ENTHALPY
--------

The enthalpy is H = U + kB*T
                kB is Boltzmann's constant
Total free energy                 ...   -668.16210782 Eh
Thermal Enthalpy correction       ...      0.00094421 Eh       0.59 kcal/mol
-----------------------------------------------------------------------
Total Enthalpy                    ...   -668.16116362 Eh

Note: Only C1 symmetry has been detected, increase convergence thresholds
      if your molecule has a higher symmetry. Symmetry factor of 1.0 is
      used for the rotational entropy correction.

Note: Rotational entropy computed according to Herzberg
Infrared and Raman Spectra, Chapter V,1, Van Nostrand Reinhold, 1945
Point Group:  C1, Symmetry Number:   1
Rotational constants in cm-1:     0.020201     0.013819     0.009329

                             ****ORCA TERMINATED NORMALLY****
TOTAL RUN TIME: 0 days 0 hours 29 minutes 23 seconds 842 msec
