                         Program Version 5.0.4 -  RELEASE  -
|  1> ! B3LYP EPR-II OPT
|  2> %pal nprocs 16 end
|  3> *XYZFile 0 2 model.xyz
|  4>
|  5>                          ****END OF INPUT****
 Total Charge           Charge          ....    0
 Multiplicity           Mult            ....    2
 Number of Electrons    NEL             ....  109
FINAL SINGLE POINT ENERGY      -668.224680274220
FINAL SINGLE POINT ENERGY      -668.226264677895
FINAL SINGLE POINT ENERGY      -668.226442641683
FINAL SINGLE POINT ENERGY      -668.226558649604
FINAL SINGLE POINT ENERGY      -668.226599441392
FINAL SINGLE POINT ENERGY      -668.226625765365
FINAL SINGLE POINT ENERGY      -668.226649112602
FINAL SINGLE POINT ENERGY      -668.226676806844
FINAL SINGLE POINT ENERGY      -668.226755779526
FINAL SINGLE POINT ENERGY      -668.226972872856
FINAL SINGLE POINT ENERGY      -668.229924225473
FINAL SINGLE POINT ENERGY      -668.229926497577
FINAL SINGLE POINT ENERGY      -668.229929230240
FINAL SINGLE POINT ENERGY      -668.229934115977
FINAL SINGLE POINT ENERGY      -668.229941031522
FINAL SINGLE POINT ENERGY      -668.229945798410
FINAL SINGLE POINT ENERGY      -668.229948632025
FINAL SINGLE POINT ENERGY      -668.229954975421
FINAL SINGLE POINT ENERGY      -668.229954714882
                    ***********************HURRAY********************

CARTESIAN COORDINATES (ANGSTROEM)
---------------------------------
  N      1.596233   -0.802325    0.380239
  C      1.093065    0.224062   -0.517746
  C      1.163026    1.562899    0.246626
  O      1.332755    1.604603    1.466997
  C     -0.339554   -0.078626   -1.036496
  C     -1.416718   -0.158896    0.057323
  C     -2.799088   -0.535189   -0.509134
  C     -3.864598   -0.610713    0.551400
  N     -5.122776   -1.133630    0.174909
  H     -3.915912    0.192393    1.285318
  H     -5.751476   -1.271656    0.957200
  H     -5.054199   -1.990053   -0.364279
  H      1.682364   -0.522745    1.349190
  C      2.130897   -1.974181   -0.075211
  N      1.004062    2.675092   -0.527857
  H      0.901362    2.549278   -1.523359
  O      2.150056   -2.272414   -1.270908
  C      2.701003   -2.901005    0.994720
  H      2.196582   -3.868187    0.921230
  H      3.761251   -3.063994    0.782275
  H      2.591529   -2.513043    2.010937
  C      1.018658    4.031929    0.007896
  H      1.848554    4.610126   -0.412159
  H      0.077506    4.548663   -0.207610
  H      1.147128    3.960495    1.087948
  H      1.758368    0.272244   -1.389077
  H     -0.616496    0.685605   -1.775209
  H     -0.280887   -1.029132   -1.577500
  H     -1.493324    0.802729    0.581918
  H     -1.121829   -0.900608    0.807506
  H     -3.082187    0.197691   -1.287982
  H     -2.725848   -1.504583   -1.026180

 Multiplicity           Mult            ....    2
 Number of Electrons    NEL             ....  109
 Basis Dimension        Dim             ....  364

ORBITAL ENERGIES
----------------
                 SPIN UP ORBITALS
  NO   OCC          E(Eh)            E(eV)
   0   1.0000     -19.121026      -520.3096
   1   1.0000     -19.097673      -519.6741
   2   1.0000     -14.371142      -391.0586
   3   1.0000     -14.347437      -390.4136
   4   1.0000     -14.333723      -390.0404
   5   1.0000     -10.302395      -280.3424
   6   1.0000     -10.286047      -279.8976
   7   1.0000     -10.237392      -278.5736
   8   1.0000     -10.224393      -278.2199
   9   1.0000     -10.198185      -277.5067
  10   1.0000     -10.188157      -277.2339
  11   1.0000     -10.183942      -277.1192
  12   1.0000     -10.181799      -277.0608
  13   1.0000     -10.178566      -276.9729
  14   1.0000      -1.044013       -28.4090
  15   1.0000      -1.019748       -27.7488
  16   1.0000      -0.930533       -25.3211
  17   1.0000      -0.914543       -24.8860
  18   1.0000      -0.896596       -24.3976
  19   1.0000      -0.797571       -21.7030
  20   1.0000      -0.758775       -20.6473
  21   1.0000      -0.725879       -19.7522
  22   1.0000      -0.709683       -19.3115
  23   1.0000      -0.664407       -18.0794
  24   1.0000      -0.612299       -16.6615
  25   1.0000      -0.596521       -16.2322
  26   1.0000      -0.580480       -15.7957
  27   1.0000      -0.561364       -15.2755
  28   1.0000      -0.535927       -14.5833
  29   1.0000      -0.504490       -13.7279
  30   1.0000      -0.479050       -13.0356
  31   1.0000      -0.471115       -12.8197
  32   1.0000      -0.466554       -12.6956
  33   1.0000      -0.460518       -12.5313
  34   1.0000      -0.450058       -12.2467
  35   1.0000      -0.446764       -12.1571
  36   1.0000      -0.441201       -12.0057
  37   1.0000      -0.426096       -11.5947
  38   1.0000      -0.409903       -11.1540
  39   1.0000      -0.401865       -10.9353
  40   1.0000      -0.400068       -10.8864
  41   1.0000      -0.389529       -10.5996
  42   1.0000      -0.382872       -10.4185
  43   1.0000      -0.374822       -10.1994
  44   1.0000      -0.364670        -9.9232
  45   1.0000      -0.356066        -9.6890
  46   1.0000      -0.339282        -9.2323
  47   1.0000      -0.335376        -9.1261
  48   1.0000      -0.326325        -8.8797
  49   1.0000      -0.314140        -8.5482
  50   1.0000      -0.269096        -7.3225
  51   1.0000      -0.268476        -7.3056
  52   1.0000      -0.247281        -6.7289
  53   1.0000      -0.243962        -6.6386
  54   1.0000      -0.143503        -3.9049
  55   0.0000       0.007067         0.1923
  56   0.0000       0.012886         0.3507
  57   0.0000       0.026896         0.7319
  58   0.0000       0.029696         0.8081
  59   0.0000       0.034997         0.9523

                 SPIN DOWN ORBITALS
  NO   OCC          E(Eh)            E(eV)
   0   1.0000     -19.121026      -520.3096
   1   1.0000     -19.097673      -519.6741
   2   1.0000     -14.371142      -391.0587
   3   1.0000     -14.347434      -390.4135
   4   1.0000     -14.329858      -389.9353
   5   1.0000     -10.302395      -280.3424
   6   1.0000     -10.286047      -279.8976
   7   1.0000     -10.237399      -278.5738
   8   1.0000     -10.224393      -278.2199
   9   1.0000     -10.188156      -277.2338
  10   1.0000     -10.185899      -277.1724
  11   1.0000     -10.183942      -277.1192
  12   1.0000     -10.182344      -277.0757
  13   1.0000     -10.178386      -276.9680
  14   1.0000      -1.044013       -28.4090
  15   1.0000      -1.019748       -27.7487
  16   1.0000      -0.930533       -25.3211
  17   1.0000      -0.914536       -24.8858
  18   1.0000      -0.885153       -24.0862
  19   1.0000      -0.796812       -21.6824
  20   1.0000      -0.756714       -20.5912
  21   1.0000      -0.725804       -19.7501
  22   1.0000      -0.706662       -19.2293
  23   1.0000      -0.659984       -17.9591
  24   1.0000      -0.607635       -16.5346
  25   1.0000      -0.596517       -16.2320
  26   1.0000      -0.570030       -15.5113
  27   1.0000      -0.560692       -15.2572
  28   1.0000      -0.535898       -14.5825
  29   1.0000      -0.500648       -13.6233
  30   1.0000      -0.478707       -13.0263
  31   1.0000      -0.470887       -12.8135
  32   1.0000      -0.465716       -12.6728
  33   1.0000      -0.459717       -12.5095
  34   1.0000      -0.448604       -12.2071
  35   1.0000      -0.445024       -12.1097
  36   1.0000      -0.436388       -11.8747
  37   1.0000      -0.425678       -11.5833
  38   1.0000      -0.407377       -11.0853
  39   1.0000      -0.400346       -10.8940
  40   1.0000      -0.398560       -10.8454
  41   1.0000      -0.389119       -10.5885
  42   1.0000      -0.379538       -10.3278
  43   1.0000      -0.373333       -10.1589
  44   1.0000      -0.361722        -9.8430
  45   1.0000      -0.354091        -9.6353
  46   1.0000      -0.335079        -9.1180
  47   1.0000      -0.331504        -9.0207
  48   1.0000      -0.323662        -8.8073
  49   1.0000      -0.284391        -7.7387
  50   1.0000      -0.269082        -7.3221
  51   1.0000      -0.268455        -7.3050
  52   1.0000      -0.247218        -6.7272
  53   1.0000      -0.243959        -6.6385
  54   0.0000      -0.012462        -0.3391
  55   0.0000       0.007167         0.1950
  56   0.0000       0.013008         0.3540
  57   0.0000       0.027136         0.7384
  58   0.0000       0.029739         0.8092

MULLIKEN ATOMIC CHARGES AND SPIN POPULATIONS
--------------------------------------------
   0 N :   -0.115315    0.000009
   1 C :   -0.126536    0.000874
   2 C :    0.088454   -0.000345
   3 O :   -0.333458    0.000032
   4 C :   -0.280940   -0.001449
   5 C :   -0.259618    0.011368
   6 C :   -0.241293   -0.027720
   7 C :   -0.255528    0.819692
   8 N :   -0.399242    0.162336
   9 H :    0.145607   -0.024945
  10 H :    0.227286   -0.001255
  11 H :    0.225198    0.001955
  12 H :    0.252387   -0.000000
  13 C :    0.170231   -0.000221
  14 N :   -0.091805   -0.000011
  15 H :    0.230048    0.000006
  16 O :   -0.328862    0.000013
  17 C :   -0.553304    0.000073
  18 H :    0.184646    0.000004
  19 H :    0.185324   -0.000002
  20 H :    0.148673    0.000000
  21 C :   -0.458471    0.000010
  22 H :    0.163060   -0.000000
  23 H :    0.161470    0.000000
  24 H :    0.200337    0.000002
  25 H :    0.163452    0.000006
  26 H :    0.126011    0.000189
  27 H :    0.178203    0.000183
  28 H :    0.148388   -0.000424
  29 H :    0.166670   -0.000537
  30 H :    0.137807    0.048302
  31 H :    0.141119    0.011856
Sum of atomic charges         :    0.0000000

LOEWDIN ATOMIC CHARGES AND SPIN POPULATIONS
-------------------------------------------
   0 N :    0.065010    0.000069
   1 C :   -0.048499   -0.000032
   2 C :   -0.092183    0.000002
   3 O :   -0.195297   -0.000006
   4 C :   -0.060685    0.001034
   5 C :   -0.068965    0.008373
   6 C :   -0.096776    0.017018
   7 C :   -0.133946    0.718325
   8 N :   -0.016151    0.169455
   9 H :    0.033178    0.015367
  10 H :    0.061597    0.008696
  11 H :    0.063240    0.012619
  12 H :    0.090491    0.000006
  13 C :   -0.104850   -0.000012
  14 N :    0.041269   -0.000005
  15 H :    0.079275    0.000021
  16 O :   -0.200284    0.000002
  17 C :   -0.043132    0.000017
  18 H :    0.053629    0.000000
  19 H :    0.054097   -0.000001
  20 H :    0.033588    0.000001
  21 C :    0.010905    0.000002
  22 H :    0.031639   -0.000001
  23 H :    0.031349   -0.000000
  24 H :    0.055103    0.000001
  25 H :    0.066871    0.000016
  26 H :    0.041488    0.000508
  27 H :    0.058483    0.000086
  28 H :    0.047273    0.000051
  29 H :    0.050693    0.000289
  30 H :    0.046492    0.036037
  31 H :    0.045099    0.012060

  Mayer bond orders larger than 0.100000
B(  0-N ,  1-C ) :   1.0211 B(  0-N , 12-H ) :   0.8927 B(  0-N , 13-C ) :   1.2105
B(  1-C ,  2-C ) :   0.8997 B(  1-C ,  4-C ) :   0.9282 B(  1-C , 16-O ) :   0.1431
B(  1-C , 25-H ) :   0.9727 B(  2-C ,  3-O ) :   1.8708 B(  2-C , 14-N ) :   1.1840
B(  4-C ,  5-C ) :   0.9613 B(  4-C , 26-H ) :   0.9779 B(  4-C , 27-H ) :   0.9634
B(  5-C ,  6-C ) :   0.9722 B(  5-C , 28-H ) :   0.9666 B(  5-C , 29-H ) :   0.9680
B(  6-C ,  7-C ) :   0.9863 B(  6-C , 30-H ) :   0.9610 B(  6-C , 31-H ) :   0.9715
B(  7-C ,  8-N ) :   1.1762 B(  7-C ,  9-H ) :   0.9720 B(  8-N , 10-H ) :   0.9420
B(  8-N , 11-H ) :   0.9415 B( 13-C , 16-O ) :   1.8572 B( 13-C , 17-C ) :   0.8942
B( 14-N , 15-H ) :   0.9300 B( 14-N , 21-C ) :   0.9705 B( 17-C , 18-H ) :   0.9600
B( 17-C , 19-H ) :   0.9585 B( 17-C , 20-H ) :   0.9760 B( 21-C , 22-H ) :   0.9610
B( 21-C , 23-H ) :   0.9589 B( 21-C , 24-H ) :   0.9430

FINAL SINGLE POINT ENERGY      -668.229955361421

DIPOLE MOMENT
-------------
                                X             Y             Z
Electronic contribution:      7.59370      -0.58778      -0.17175
Nuclear contribution   :     -8.25787       1.45412       0.17825
                        -----------------------------------------
Total Dipole Moment    :     -0.66417       0.86634       0.00650
                        -----------------------------------------
Magnitude (a.u.)       :      1.09165
Magnitude (Debye)      :      2.77476

Rotational constants in cm-1:     0.019564     0.013286     0.008985
Rotational constants in MHz :   586.499347   398.317486   269.352650

                             ****ORCA TERMINATED NORMALLY****
TOTAL RUN TIME: 0 days 0 hours 21 minutes 53 seconds 90 msec
