                         Program Version 5.0.4 -  RELEASE  -
|  1> ! B3LYP EPR-II AUTOAUX
|  2> %pal nprocs 16 end
|  3> *XYZFile 1 2 opt.xyz
|  4> %EPRNMR
|  5>         GTENSOR   TRUE
|  6>         NUCLEI    = 1,4,9,10,11,12,13,14,15,16,17,18,20,21,23,32,33 {SHIFT, AISO, ADIP, AORB}
|  7>         ORI       GIAO
|  8> END
|  9>
| 10>                          ****END OF INPUT****

CARTESIAN COORDINATES (ANGSTROEM)
---------------------------------
  N     -7.838166    1.499810    0.369687
  C     -6.418375    1.691405    0.704709
  C     -6.003048    0.379748    1.440199
  O     -6.836146   -0.501945    1.645777
  C     -6.165133    2.912765    1.560903
  C     -6.180620    4.302871    0.984545
  C     -5.088001    4.590245   -0.089258
  C     -5.545418    5.587117   -1.162981
  N     -6.412804    4.891450   -2.198798
  H     -6.079899    5.033220    1.792783
  H     -7.173411    4.477148    0.540898
  H     -4.760184    3.666705   -0.581755
  H     -4.198036    5.001355    0.395781
  H     -4.705570    6.037646   -1.696177
  H     -6.149617    6.388343   -0.731385
  H     -6.989888    5.557001   -2.716829
  H     -7.053099    4.147808   -1.765277
  H     -8.234283    0.681440    0.831588
  C     -8.496178    2.101102   -0.633789
  N     -4.702829    0.317235    1.812797
  H     -4.120555    1.123943    1.640651
  O     -7.984807    3.008824   -1.335194
  H     -5.830153    4.403499   -2.882250
  C     -4.126149   -0.822911    2.529744
  H     -4.903137   -1.577690    2.646079
  H     -3.292953   -1.247595    1.963000
  H     -3.772518   -0.516581    3.518558
  C     -9.913818    1.642258   -0.903696
  H    -10.584443    2.502002   -0.819257
  H     -9.970896    1.280002   -1.934200
  H    -10.246752    0.855469   -0.224760
  H     -5.858027    1.754549   -0.237368
  H     -6.303655    2.796443    2.633366

 Total Charge           Charge          ....    1
 Multiplicity           Mult            ....    2
 Number of Electrons    NEL             ....  109
 Basis Dimension        Dim             ....  371

ORBITAL ENERGIES
----------------
                 SPIN UP ORBITALS
  NO   OCC          E(Eh)            E(eV)
   0   1.0000     -19.251706      -523.8656
   1   1.0000     -19.228248      -523.2272
   2   1.0000     -14.581124      -396.7725
   3   1.0000     -14.487876      -394.2352
   4   1.0000     -14.474721      -393.8772
   5   1.0000     -10.433281      -283.9040
   6   1.0000     -10.412352      -283.3345
   7   1.0000     -10.397742      -282.9369
   8   1.0000     -10.369886      -282.1789
   9   1.0000     -10.344008      -281.4748
  10   1.0000     -10.334969      -281.2288
  11   1.0000     -10.327916      -281.0369
  12   1.0000     -10.311701      -280.5957
  13   1.0000     -10.302541      -280.3464
  14   1.0000      -1.171097       -31.8672
  15   1.0000      -1.152475       -31.3604
  16   1.0000      -1.135630       -30.9021
  17   1.0000      -1.054374       -28.6910
  18   1.0000      -1.034756       -28.1571
  19   1.0000      -0.948801       -25.8182
  20   1.0000      -0.909840       -24.7580
  21   1.0000      -0.861972       -23.4554
  22   1.0000      -0.839812       -22.8525
  23   1.0000      -0.802962       -21.8497
  24   1.0000      -0.779382       -21.2081
  25   1.0000      -0.740149       -20.1405
  26   1.0000      -0.725586       -19.7442
  27   1.0000      -0.713550       -19.4167
  28   1.0000      -0.705176       -19.1888
  29   1.0000      -0.692609       -18.8468
  30   1.0000      -0.652328       -17.7507
  31   1.0000      -0.646233       -17.5849
  32   1.0000      -0.621449       -16.9105
  33   1.0000      -0.601869       -16.3777
  34   1.0000      -0.594497       -16.1771
  35   1.0000      -0.580034       -15.7835
  36   1.0000      -0.567661       -15.4468
  37   1.0000      -0.564158       -15.3515
  38   1.0000      -0.556891       -15.1538
  39   1.0000      -0.554637       -15.0924
  40   1.0000      -0.539081       -14.6691
  41   1.0000      -0.532017       -14.4769
  42   1.0000      -0.517327       -14.0772
  43   1.0000      -0.512881       -13.9562
  44   1.0000      -0.505304       -13.7500
  45   1.0000      -0.494057       -13.4440
  46   1.0000      -0.491287       -13.3686
  47   1.0000      -0.486365       -13.2347
  48   1.0000      -0.482965       -13.1421
  49   1.0000      -0.471622       -12.8335
  50   1.0000      -0.407029       -11.0758
  51   1.0000      -0.402543       -10.9537
  52   1.0000      -0.379138       -10.3169
  53   1.0000      -0.368249       -10.0206
  54   1.0000      -0.335907        -9.1405
  55   0.0000      -0.139335        -3.7915
  56   0.0000      -0.116941        -3.1821
  57   0.0000      -0.101412        -2.7596
  58   0.0000      -0.096666        -2.6304
  59   0.0000      -0.089715        -2.4413

                 SPIN DOWN ORBITALS
  NO   OCC          E(Eh)            E(eV)
   0   1.0000     -19.251525      -523.8606
   1   1.0000     -19.228170      -523.2251
   2   1.0000     -14.581119      -396.7724
   3   1.0000     -14.486263      -394.1913
   4   1.0000     -14.474446      -393.8697
   5   1.0000     -10.433320      -283.9051
   6   1.0000     -10.412234      -283.3313
   7   1.0000     -10.397719      -282.9363
   8   1.0000     -10.370628      -282.1991
   9   1.0000     -10.343230      -281.4536
  10   1.0000     -10.328695      -281.0581
  11   1.0000     -10.321240      -280.8552
  12   1.0000     -10.311704      -280.5957
  13   1.0000     -10.302483      -280.3448
  14   1.0000      -1.170520       -31.8515
  15   1.0000      -1.152233       -31.3538
  16   1.0000      -1.135570       -30.9004
  17   1.0000      -1.051554       -28.6142
  18   1.0000      -1.034149       -28.1406
  19   1.0000      -0.943392       -25.6710
  20   1.0000      -0.902831       -24.5673
  21   1.0000      -0.857822       -23.3425
  22   1.0000      -0.838993       -22.8302
  23   1.0000      -0.799913       -21.7667
  24   1.0000      -0.775238       -21.0953
  25   1.0000      -0.738239       -20.0885
  26   1.0000      -0.723258       -19.6809
  27   1.0000      -0.711576       -19.3630
  28   1.0000      -0.700062       -19.0496
  29   1.0000      -0.686789       -18.6885
  30   1.0000      -0.650879       -17.7113
  31   1.0000      -0.644807       -17.5461
  32   1.0000      -0.618080       -16.8188
  33   1.0000      -0.599356       -16.3093
  34   1.0000      -0.592066       -16.1109
  35   1.0000      -0.577304       -15.7092
  36   1.0000      -0.566000       -15.4016
  37   1.0000      -0.563565       -15.3354
  38   1.0000      -0.555436       -15.1142
  39   1.0000      -0.552236       -15.0271
  40   1.0000      -0.537308       -14.6209
  41   1.0000      -0.530353       -14.4316
  42   1.0000      -0.515826       -14.0363
  43   1.0000      -0.510610       -13.8944
  44   1.0000      -0.500604       -13.6221
  45   1.0000      -0.492724       -13.4077
  46   1.0000      -0.491082       -13.3630
  47   1.0000      -0.485046       -13.1988
  48   1.0000      -0.478851       -13.0302
  49   1.0000      -0.469624       -12.7791
  50   1.0000      -0.405640       -11.0380
  51   1.0000      -0.398386       -10.8406
  52   1.0000      -0.377588       -10.2747
  53   1.0000      -0.367260        -9.9936
  54   0.0000      -0.196164        -5.3379
  55   0.0000      -0.139209        -3.7881
  56   0.0000      -0.115549        -3.1442
  57   0.0000      -0.100824        -2.7436
  58   0.0000      -0.096104        -2.6151

MULLIKEN ATOMIC CHARGES AND SPIN POPULATIONS
--------------------------------------------
   0 N :   -0.060951    0.039311
   1 C :   -0.115319   -0.034563
   2 C :    0.071030   -0.001952
   3 O :   -0.313444    0.001610
   4 C :   -0.118977    0.995739
   5 C :   -0.262658   -0.061876
   6 C :   -0.252855    0.031105
   7 C :   -0.277778    0.004405
   8 N :   -0.361517    0.000259
   9 H :    0.166013    0.002395
  10 H :    0.157292    0.048116
  11 H :    0.151492   -0.002477
  12 H :    0.180155   -0.000985
  13 H :    0.192305   -0.000192
  14 H :    0.207126   -0.000169
  15 H :    0.315139    0.000012
  16 H :    0.334444   -0.000132
  17 H :    0.273574    0.000853
  18 C :    0.160196   -0.002122
  19 N :   -0.081330    0.012300
  20 H :    0.234053   -0.000204
  21 O :   -0.344535    0.005058
  22 H :    0.311643    0.000077
  23 C :   -0.444467   -0.000310
  24 H :    0.207439    0.000691
  25 H :    0.176141    0.000167
  26 H :    0.176768    0.000408
  27 C :   -0.529489    0.002579
  28 H :    0.191836    0.000771
  29 H :    0.196030   -0.000327
  30 H :    0.169659   -0.000040
  31 H :    0.152736    0.008297
  32 H :    0.138248   -0.048801
Sum of atomic charges         :    1.0000000

LOEWDIN ATOMIC CHARGES AND SPIN POPULATIONS
-------------------------------------------
   0 N :    0.104623    0.044893
   1 C :   -0.054079    0.015830
   2 C :   -0.095631    0.004006
   3 O :   -0.170798    0.002587
   4 C :   -0.017382    0.811141
   5 C :   -0.073252    0.011578
   6 C :   -0.062118    0.028997
   7 C :    0.013367    0.002217
   8 N :    0.316005    0.000267
   9 H :    0.056356    0.001561
  10 H :    0.059703    0.039678
  11 H :    0.049199    0.000336
  12 H :    0.060002   -0.000038
  13 H :    0.051898    0.000126
  14 H :    0.059872    0.000153
  15 H :    0.111219    0.000002
  16 H :    0.095870    0.000015
  17 H :    0.106870    0.001392
  18 C :   -0.060619    0.001289
  19 N :    0.056224    0.009211
  20 H :    0.083342    0.002092
  21 O :   -0.242965    0.005028
  22 H :    0.112603    0.000049
  23 C :    0.028929    0.000268
  24 H :    0.057995    0.000323
  25 H :    0.038148    0.000093
  26 H :    0.038627    0.000276
  27 C :   -0.016379    0.001956
  28 H :    0.061885    0.000519
  29 H :    0.064035   -0.000195
  30 H :    0.045976    0.000090
  31 H :    0.066291    0.007424
  32 H :    0.054185    0.006835

  Mayer bond orders larger than 0.100000
B(  0-N ,  1-C ) :   1.0106 B(  0-N , 17-H ) :   0.8658 B(  0-N , 18-C ) :   1.3798
B(  1-C ,  2-C ) :   0.8944 B(  1-C ,  4-C ) :   1.0224 B(  1-C , 21-O ) :   0.1152
B(  1-C , 31-H ) :   0.9596 B(  2-C ,  3-O ) :   1.8704 B(  2-C , 19-N ) :   1.2203
B(  4-C ,  5-C ) :   1.0164 B(  4-C , 32-H ) :   0.9623 B(  5-C ,  6-C ) :   0.9445
B(  5-C ,  9-H ) :   0.9629 B(  5-C , 10-H ) :   0.9429 B(  6-C ,  7-C ) :   0.9560
B(  6-C , 11-H ) :   0.9657 B(  6-C , 12-H ) :   0.9617 B(  7-C ,  8-N ) :   0.9241
B(  7-C , 13-H ) :   0.9530 B(  7-C , 14-H ) :   0.9474 B(  8-N , 15-H ) :   0.9007
B(  8-N , 16-H ) :   0.7153 B(  8-N , 22-H ) :   0.9041 B( 16-H , 21-O ) :   0.1818
B( 18-C , 21-O ) :   1.6332 B( 18-C , 27-C ) :   0.9310 B( 19-N , 20-H ) :   0.9266
B( 19-N , 23-C ) :   0.9586 B( 23-C , 24-H ) :   0.9436 B( 23-C , 25-H ) :   0.9562
B( 23-C , 26-H ) :   0.9541 B( 27-C , 28-H ) :   0.9468 B( 27-C , 29-H ) :   0.9449
B( 27-C , 30-H ) :   0.9667

FINAL SINGLE POINT ENERGY      -668.618959689301

DIPOLE MOMENT
-------------
                                X             Y             Z
Electronic contribution:     -2.92586      -5.52668       0.95643
Nuclear contribution   :      4.06053       8.73655      -3.12713
                        -----------------------------------------
Total Dipole Moment    :      1.13467       3.20987      -2.17070
                        -----------------------------------------
Magnitude (a.u.)       :      4.03766
Magnitude (Debye)      :     10.26292

Rotational constants in cm-1:     0.027127     0.014227     0.010242
Rotational constants in MHz :   813.261796   426.524177   307.059305

CHEMICAL SHIELDING SUMMARY (ppm)  --  Orbital contribution
----------------------------------------------------------

  Nucleus  Element    Isotropic     Anisotropy
  -------  -------  ------------   ------------
      0       N          105.415         93.400
      3       O          -36.403        586.004
      8       N          213.300         15.116
      9       H           28.836          7.437
     10       H           29.364          4.132
     11       H           30.108          4.765
     12       H           29.718          9.549
     13       H           28.516          8.945
     14       H           28.832          7.465
     15       H           28.163         15.461
     16       H           18.185         29.584
     17       H           23.600          8.705
     19       N          141.397         88.251
     20       H           27.276          7.401
     22       H           28.550         12.662
     31       H           27.297          2.166
     32       H           26.714          4.580

                             ****ORCA TERMINATED NORMALLY****
TOTAL RUN TIME: 0 days 0 hours 9 minutes 8 seconds 896 msec
