                         Program Version 5.0.4 -  RELEASE  -
|  1> ! M062X def2-TZVP OPT FREQ
|  2> %pal nprocs 16 end
|  3> *XYZFile 1 2 opt.xyz
|  4>
|  5>                          ****END OF INPUT****
 Total Charge           Charge          ....    1
 Multiplicity           Mult            ....    2
 Number of Electrons    NEL             ....  109
FINAL SINGLE POINT ENERGY      -668.836273053772
FINAL SINGLE POINT ENERGY      -668.815756679674
FINAL SINGLE POINT ENERGY      -668.827286114567
FINAL SINGLE POINT ENERGY      -668.835619047512
FINAL SINGLE POINT ENERGY      -668.838780581931
FINAL SINGLE POINT ENERGY      -668.838244552682
FINAL SINGLE POINT ENERGY      -668.839491507555
FINAL SINGLE POINT ENERGY      -668.839647760213
FINAL SINGLE POINT ENERGY      -668.839715260500
FINAL SINGLE POINT ENERGY      -668.839723868287
FINAL SINGLE POINT ENERGY      -668.839765992698
FINAL SINGLE POINT ENERGY      -668.839776450680
FINAL SINGLE POINT ENERGY      -668.839787258039
FINAL SINGLE POINT ENERGY      -668.839800031110
FINAL SINGLE POINT ENERGY      -668.839800525085
FINAL SINGLE POINT ENERGY      -668.839815180917
FINAL SINGLE POINT ENERGY      -668.839819798469
                    ***********************HURRAY********************

CARTESIAN COORDINATES (ANGSTROEM)
---------------------------------
  N     -7.727384    1.479802    0.353354
  C     -6.318503    1.607120    0.713618
  C     -5.980429    0.345757    1.531630
  O     -6.848454   -0.459150    1.800957
  C     -6.028748    2.849959    1.503399
  C     -6.170053    4.202916    0.894461
  C     -5.195216    4.478170   -0.261515
  C     -5.662296    5.626699   -1.142537
  N     -6.688992    5.135070   -2.130803
  H     -6.029559    4.965716    1.661634
  H     -7.202519    4.322682    0.536962
  H     -5.067285    3.587773   -0.881547
  H     -4.213106    4.726807    0.141023
  H     -4.850830    6.072169   -1.713311
  H     -6.135199    6.409468   -0.551136
  H     -7.344849    5.865126   -2.404035
  H     -7.218000    4.285040   -1.761702
  H     -8.219921    0.761182    0.875260
  C     -8.276062    2.051370   -0.710647
  N     -4.698246    0.246332    1.913865
  H     -4.061982    0.982280    1.652764
  O     -7.624982    2.818201   -1.444630
  H     -6.234473    4.801277   -2.981445
  C     -4.201388   -0.861004    2.714570
  H     -5.039583   -1.517495    2.929761
  H     -3.439602   -1.416258    2.169289
  H     -3.782314   -0.494922    3.650832
  C     -9.710351    1.732075   -1.009684
  H    -10.284584    2.658383   -1.006629
  H     -9.765453    1.311926   -2.013256
  H    -10.144454    1.035366   -0.297243
  H     -5.742313    1.592817   -0.217396
  H     -6.031438    2.762027    2.582222

 Multiplicity           Mult            ....    2
 Number of Electrons    NEL             ....  109
 Basis Dimension        Dim             ....  548

ORBITAL ENERGIES
----------------
                 SPIN UP ORBITALS
  NO   OCC          E(Eh)            E(eV)
   0   1.0000     -19.737439      -537.0830
   1   1.0000     -19.708251      -536.2888
   2   1.0000     -15.000967      -408.1971
   3   1.0000     -14.907349      -405.6496
   4   1.0000     -14.885774      -405.0625
   5   1.0000     -10.785274      -293.4822
   6   1.0000     -10.758635      -292.7573
   7   1.0000     -10.748693      -292.4868
   8   1.0000     -10.717895      -291.6488
   9   1.0000     -10.689303      -290.8707
  10   1.0000     -10.686674      -290.7992
  11   1.0000     -10.677833      -290.5586
  12   1.0000     -10.661385      -290.1110
  13   1.0000     -10.657817      -290.0140
  14   1.0000      -1.305726       -35.5306
  15   1.0000      -1.283809       -34.9342
  16   1.0000      -1.250686       -34.0329
  17   1.0000      -1.173276       -31.9265
  18   1.0000      -1.148062       -31.2403
  19   1.0000      -1.057952       -28.7883
  20   1.0000      -1.014186       -27.5974
  21   1.0000      -0.964445       -26.2439
  22   1.0000      -0.940334       -25.5878
  23   1.0000      -0.895105       -24.3571
  24   1.0000      -0.870138       -23.6777
  25   1.0000      -0.823999       -22.4222
  26   1.0000      -0.812760       -22.1163
  27   1.0000      -0.794600       -21.6222
  28   1.0000      -0.788620       -21.4595
  29   1.0000      -0.778092       -21.1730
  30   1.0000      -0.736070       -20.0295
  31   1.0000      -0.722213       -19.6524
  32   1.0000      -0.703221       -19.1356
  33   1.0000      -0.683162       -18.5898
  34   1.0000      -0.676889       -18.4191
  35   1.0000      -0.660868       -17.9831
  36   1.0000      -0.646776       -17.5997
  37   1.0000      -0.642404       -17.4807
  38   1.0000      -0.634445       -17.2641
  39   1.0000      -0.627116       -17.0647
  40   1.0000      -0.612614       -16.6701
  41   1.0000      -0.606142       -16.4940
  42   1.0000      -0.588878       -16.0242
  43   1.0000      -0.584334       -15.9005
  44   1.0000      -0.570507       -15.5243
  45   1.0000      -0.564834       -15.3699
  46   1.0000      -0.560873       -15.2621
  47   1.0000      -0.555460       -15.1148
  48   1.0000      -0.549733       -14.9590
  49   1.0000      -0.540706       -14.7134
  50   1.0000      -0.487095       -13.2545
  51   1.0000      -0.471020       -12.8171
  52   1.0000      -0.453198       -12.3321
  53   1.0000      -0.431751       -11.7485
  54   1.0000      -0.394137       -10.7250
  55   0.0000      -0.109661        -2.9840
  56   0.0000      -0.080823        -2.1993
  57   0.0000      -0.064444        -1.7536
  58   0.0000      -0.051671        -1.4060
  59   0.0000      -0.050255        -1.3675

                 SPIN DOWN ORBITALS
  NO   OCC          E(Eh)            E(eV)
   0   1.0000     -19.737281      -537.0787
   1   1.0000     -19.708245      -536.2886
   2   1.0000     -15.000964      -408.1970
   3   1.0000     -14.906283      -405.6206
   4   1.0000     -14.885615      -405.0582
   5   1.0000     -10.785301      -293.4830
   6   1.0000     -10.758614      -292.7568
   7   1.0000     -10.748676      -292.4863
   8   1.0000     -10.718498      -291.6652
   9   1.0000     -10.688722      -290.8549
  10   1.0000     -10.679819      -290.6126
  11   1.0000     -10.678455      -290.5755
  12   1.0000     -10.661383      -290.1110
  13   1.0000     -10.657783      -290.0130
  14   1.0000      -1.305079       -35.5130
  15   1.0000      -1.283687       -34.9309
  16   1.0000      -1.250624       -34.0312
  17   1.0000      -1.170395       -31.8481
  18   1.0000      -1.147538       -31.2261
  19   1.0000      -1.050724       -28.5916
  20   1.0000      -1.007094       -27.4044
  21   1.0000      -0.958799       -26.0902
  22   1.0000      -0.939342       -25.5608
  23   1.0000      -0.891991       -24.2723
  24   1.0000      -0.865044       -23.5390
  25   1.0000      -0.821709       -22.3598
  26   1.0000      -0.807842       -21.9825
  27   1.0000      -0.793397       -21.5894
  28   1.0000      -0.783013       -21.3069
  29   1.0000      -0.771349       -20.9895
  30   1.0000      -0.733509       -19.9598
  31   1.0000      -0.721654       -19.6372
  32   1.0000      -0.697700       -18.9854
  33   1.0000      -0.677563       -18.4374
  34   1.0000      -0.674867       -18.3641
  35   1.0000      -0.658785       -17.9264
  36   1.0000      -0.645428       -17.5630
  37   1.0000      -0.639256       -17.3950
  38   1.0000      -0.633220       -17.2308
  39   1.0000      -0.623696       -16.9716
  40   1.0000      -0.610022       -16.5995
  41   1.0000      -0.603526       -16.4228
  42   1.0000      -0.587569       -15.9886
  43   1.0000      -0.581543       -15.8246
  44   1.0000      -0.566748       -15.4220
  45   1.0000      -0.563284       -15.3277
  46   1.0000      -0.556453       -15.1419
  47   1.0000      -0.554800       -15.0969
  48   1.0000      -0.544976       -14.8296
  49   1.0000      -0.538692       -14.6586
  50   1.0000      -0.485892       -13.2218
  51   1.0000      -0.466451       -12.6928
  52   1.0000      -0.452744       -12.3198
  53   1.0000      -0.430318       -11.7095
  54   0.0000      -0.159493        -4.3400
  55   0.0000      -0.109779        -2.9872
  56   0.0000      -0.080799        -2.1986
  57   0.0000      -0.067050        -1.8245
  58   0.0000      -0.056614        -1.5405

MULLIKEN ATOMIC CHARGES AND SPIN POPULATIONS
--------------------------------------------
   0 N :   -0.319884    0.026251
   1 C :   -0.093434   -0.012331
   2 C :    0.376254   -0.019661
   3 O :   -0.395935   -0.000024
   4 C :   -0.255110    1.005096
   5 C :   -0.322130   -0.059406
   6 C :   -0.318951    0.016055
   7 C :   -0.234693    0.013768
   8 N :   -0.372291   -0.001287
   9 H :    0.188854    0.003785
  10 H :    0.177133    0.047350
  11 H :    0.182886   -0.002142
  12 H :    0.189381   -0.000794
  13 H :    0.203694    0.000046
  14 H :    0.211472   -0.001532
  15 H :    0.317712    0.000155
  16 H :    0.357642   -0.000315
  17 H :    0.292841    0.001102
  18 C :    0.493408   -0.002903
  19 N :   -0.331191    0.011753
  20 H :    0.253715   -0.004025
  21 O :   -0.587831    0.005343
  22 H :    0.319765    0.000234
  23 C :   -0.310307    0.000896
  24 H :    0.191920    0.000309
  25 H :    0.160918   -0.000047
  26 H :    0.157986    0.000187
  27 C :   -0.441973    0.001452
  28 H :    0.162871    0.000519
  29 H :    0.180503   -0.000267
  30 H :    0.157262    0.000103
  31 H :    0.198554    0.010881
  32 H :    0.208959   -0.040552
Sum of atomic charges         :    1.0000000

LOEWDIN ATOMIC CHARGES AND SPIN POPULATIONS
-------------------------------------------
   0 N :    0.194799    0.032137
   1 C :   -0.245396    0.062332
   2 C :   -0.442129    0.000454
   3 O :    0.073880    0.000047
   4 C :   -0.086907    0.756505
   5 C :   -0.275230    0.059908
   6 C :   -0.262229    0.022154
   7 C :   -0.250208    0.003405
   8 N :    0.137466    0.000385
   9 H :    0.154499    0.000525
  10 H :    0.149469    0.029797
  11 H :    0.145818    0.000331
  12 H :    0.155670    0.000478
  13 H :    0.145691   -0.000009
  14 H :    0.149509   -0.000013
  15 H :    0.202856    0.000064
  16 H :    0.190385    0.000232
  17 H :    0.213187    0.001107
  18 C :   -0.441181    0.002622
  19 N :    0.111872    0.007647
  20 H :    0.188820    0.002196
  21 O :   -0.024176    0.005325
  22 H :    0.209326    0.000122
  23 C :   -0.283992    0.000878
  24 H :    0.138004    0.000226
  25 H :    0.122128    0.000050
  26 H :    0.121632    0.000133
  27 C :   -0.238657    0.001482
  28 H :    0.144286    0.000354
  29 H :    0.150123   -0.000154
  30 H :    0.135940    0.000075
  31 H :    0.168071    0.010056
  32 H :    0.146675   -0.000850

  Mayer bond orders larger than 0.100000
B(  0-N ,  1-C ) :   0.8466 B(  0-N , 17-H ) :   0.8620 B(  0-N , 18-C ) :   1.3761
B(  1-C ,  2-C ) :   0.9715 B(  1-C ,  4-C ) :   0.9625 B(  1-C , 31-H ) :   0.9625
B(  2-C ,  3-O ) :   1.9120 B(  2-C , 19-N ) :   1.2773 B(  4-C ,  5-C ) :   0.9632
B(  4-C , 32-H ) :   0.9602 B(  5-C ,  6-C ) :   0.8367 B(  5-C ,  9-H ) :   0.9663
B(  5-C , 10-H ) :   0.9812 B(  6-C ,  7-C ) :   0.9050 B(  6-C , 11-H ) :   0.9830
B(  6-C , 12-H ) :   0.9582 B(  7-C ,  8-N ) :   0.8310 B(  7-C , 13-H ) :   0.9794
B(  7-C , 14-H ) :   0.9718 B(  8-N , 15-H ) :   0.8903 B(  8-N , 16-H ) :   0.7502
B(  8-N , 22-H ) :   0.8891 B( 16-H , 21-O ) :   0.1582 B( 18-C , 21-O ) :   1.5305
B( 18-C , 27-C ) :   0.9305 B( 19-N , 20-H ) :   0.9128 B( 19-N , 23-C ) :   0.8871
B( 23-C , 24-H ) :   0.9588 B( 23-C , 25-H ) :   0.9659 B( 23-C , 26-H ) :   0.9646
B( 27-C , 28-H ) :   0.9467 B( 27-C , 29-H ) :   0.9489 B( 27-C , 30-H ) :   0.9856

FINAL SINGLE POINT ENERGY      -668.839831910579

DIPOLE MOMENT
-------------
                                X             Y             Z
Electronic contribution:     -2.27897      -5.83873       1.03796
Nuclear contribution   :      2.85869       9.42439      -3.17155
                        -----------------------------------------
Total Dipole Moment    :      0.57972       3.58566      -2.13359
                        -----------------------------------------
Magnitude (a.u.)       :      4.21251
Magnitude (Debye)      :     10.70735

VIBRATIONAL FREQUENCIES
-----------------------

Scaling factor for frequencies =  1.000000000  (already applied!)

   0:         0.00 cm**-1
   1:         0.00 cm**-1
   2:         0.00 cm**-1
   3:         0.00 cm**-1
   4:         0.00 cm**-1
   5:         0.00 cm**-1
   6:        46.23 cm**-1
   7:        56.14 cm**-1
   8:        77.87 cm**-1
   9:        90.96 cm**-1
  10:        97.52 cm**-1
  11:       111.67 cm**-1
  12:       127.97 cm**-1
  13:       156.33 cm**-1
  14:       177.90 cm**-1
  15:       181.84 cm**-1
  16:       203.66 cm**-1
  17:       214.63 cm**-1
  18:       244.55 cm**-1
  19:       287.44 cm**-1
  20:       309.04 cm**-1
  21:       314.41 cm**-1
  22:       320.24 cm**-1
  23:       369.17 cm**-1
  24:       393.97 cm**-1
  25:       431.45 cm**-1
  26:       475.32 cm**-1
  27:       530.53 cm**-1
  28:       548.50 cm**-1
  29:       574.32 cm**-1
  30:       622.30 cm**-1
  31:       661.39 cm**-1
  32:       701.97 cm**-1
  33:       728.73 cm**-1
  34:       761.15 cm**-1
  35:       789.54 cm**-1
  36:       839.39 cm**-1
  37:       904.83 cm**-1
  38:       924.72 cm**-1
  39:       960.24 cm**-1
  40:      1004.44 cm**-1
  41:      1019.25 cm**-1
  42:      1025.99 cm**-1
  43:      1043.17 cm**-1
  44:      1066.76 cm**-1
  45:      1068.70 cm**-1
  46:      1075.49 cm**-1
  47:      1119.68 cm**-1
  48:      1131.12 cm**-1
  49:      1144.44 cm**-1
  50:      1155.26 cm**-1
  51:      1181.94 cm**-1
  52:      1191.18 cm**-1
  53:      1233.45 cm**-1
  54:      1250.66 cm**-1
  55:      1287.26 cm**-1
  56:      1303.02 cm**-1
  57:      1304.65 cm**-1
  58:      1342.96 cm**-1
  59:      1350.62 cm**-1
  60:      1365.37 cm**-1
  61:      1398.87 cm**-1
  62:      1410.90 cm**-1
  63:      1415.93 cm**-1
  64:      1424.75 cm**-1
  65:      1452.57 cm**-1
  66:      1476.38 cm**-1
  67:      1477.82 cm**-1
  68:      1485.93 cm**-1
  69:      1489.60 cm**-1
  70:      1505.27 cm**-1
  71:      1506.39 cm**-1
  72:      1513.55 cm**-1
  73:      1556.84 cm**-1
  74:      1586.99 cm**-1
  75:      1598.74 cm**-1
  76:      1626.82 cm**-1
  77:      1663.89 cm**-1
  78:      1681.78 cm**-1
  79:      1803.56 cm**-1
  80:      2630.72 cm**-1
  81:      3017.75 cm**-1
  82:      3071.59 cm**-1
  83:      3089.33 cm**-1
  84:      3089.85 cm**-1
  85:      3093.55 cm**-1
  86:      3115.63 cm**-1
  87:      3119.63 cm**-1
  88:      3144.90 cm**-1
  89:      3161.32 cm**-1
  90:      3172.04 cm**-1
  91:      3176.51 cm**-1
  92:      3196.00 cm**-1
  93:      3201.27 cm**-1
  94:      3207.36 cm**-1
  95:      3476.18 cm**-1
  96:      3536.14 cm**-1
  97:      3542.59 cm**-1
  98:      3644.67 cm**-1

IR SPECTRUM
-----------

 Mode   freq       eps      Int      T**2         TX        TY        TZ
       cm**-1   L/(mol*cm) km/mol    a.u.
----------------------------------------------------------------------------
  6:     46.23   0.000330    1.67  0.002228  (-0.021728 -0.032530 -0.026416)
  7:     56.14   0.001179    5.96  0.006556  (-0.053248  0.036892  0.048571)
  8:     77.87   0.000136    0.68  0.000543  ( 0.004412 -0.004200  0.022495)
  9:     90.96   0.000296    1.50  0.001016  ( 0.019476 -0.025227  0.000599)
 10:     97.52   0.000154    0.78  0.000493  (-0.014727 -0.005665  0.015606)
 11:    111.67   0.001910    9.65  0.005337  (-0.067766  0.020040 -0.018527)
 12:    127.97   0.004305   21.75  0.010497  (-0.029354  0.019244  0.096257)
 13:    156.33   0.001142    5.77  0.002280  (-0.031211  0.016974 -0.031902)
 14:    177.90   0.000829    4.19  0.001454  ( 0.008330  0.021343 -0.030473)
 15:    181.84   0.000780    3.94  0.001338  ( 0.025312  0.021626 -0.015166)
 16:    203.66   0.002883   14.57  0.004417  ( 0.039648  0.052996 -0.006033)
 17:    214.63   0.003839   19.40  0.005582  (-0.023514 -0.067211  0.022628)
 18:    244.55   0.008180   41.34  0.010438  (-0.000337  0.100784 -0.016762)
 19:    287.44   0.000806    4.07  0.000875  ( 0.012444 -0.004535  0.026452)
 20:    309.04   0.000527    2.66  0.000532  ( 0.012064 -0.019599  0.001642)
 21:    314.41   0.000907    4.58  0.000900  (-0.014754 -0.000542 -0.026119)
 22:    320.24   0.008315   42.02  0.008103  ( 0.027405  0.079592 -0.031893)
 23:    369.17   0.004903   24.78  0.004144  (-0.031500  0.033290 -0.045208)
 24:    393.97   0.004027   20.35  0.003190  (-0.029976  0.044438 -0.017803)
 25:    431.45   0.004827   24.39  0.003491  ( 0.038457  0.041834 -0.016189)
 26:    475.32   0.000863    4.36  0.000567  (-0.000084 -0.020499 -0.012105)
 27:    530.53   0.012729   64.33  0.007487  (-0.036699  0.048774  0.061332)
 28:    548.50   0.004014   20.29  0.002284  (-0.041098 -0.022003  0.010523)
 29:    574.32   0.008106   40.97  0.004405  ( 0.046906  0.012433  0.045276)
 30:    622.30   0.004817   24.34  0.002415  ( 0.021807 -0.039663 -0.019150)
 31:    661.39   0.000522    2.64  0.000246  ( 0.007511  0.005870 -0.012461)
 32:    701.97   0.000403    2.04  0.000179  (-0.007137  0.011039 -0.002555)
 33:    728.73   0.010217   51.63  0.004375  (-0.040315  0.039527  0.034463)
 34:    761.15   0.002344   11.85  0.000961  (-0.003715 -0.027182 -0.014440)
 35:    789.54   0.002036   10.29  0.000805  (-0.007499  0.027338  0.001004)
 36:    839.39   0.001569    7.93  0.000583  (-0.019122  0.003803  0.014257)
 37:    904.83   0.000588    2.97  0.000203  (-0.007159 -0.001080 -0.012259)
 38:    924.72   0.000234    1.18  0.000079  (-0.006799 -0.002255  0.005269)
 39:    960.24   0.001317    6.66  0.000428  (-0.016316  0.012517  0.002279)
 40:   1004.44   0.002585   13.07  0.000803  ( 0.014251 -0.009340  0.022647)
 41:   1019.25   0.003453   17.45  0.001057  ( 0.009757  0.028668 -0.011833)
 42:   1025.99   0.001989   10.05  0.000605  (-0.015057 -0.000657 -0.019435)
 43:   1043.17   0.003774   19.07  0.001129  (-0.003079 -0.019372  0.027282)
 44:   1066.76   0.001400    7.08  0.000410  ( 0.002552 -0.008775 -0.018059)
 45:   1068.70   0.000198    1.00  0.000058  ( 0.005550 -0.005135 -0.000809)
 46:   1075.49   0.001471    7.44  0.000427  ( 0.017783 -0.000366  0.010516)
 47:   1119.68   0.000070    0.35  0.000020  (-0.004132  0.001502 -0.000476)
 48:   1131.12   0.000474    2.40  0.000131  ( 0.000915 -0.005044  0.010224)
 49:   1144.44   0.002680   13.54  0.000731  ( 0.000484 -0.024035  0.012362)
 50:   1155.26   0.000243    1.23  0.000066  (-0.003101 -0.004490 -0.005986)
 51:   1181.94   0.007864   39.74  0.002076  (-0.035533  0.020503 -0.019832)
 52:   1191.18   0.003267   16.51  0.000856  ( 0.023477 -0.005487  0.016573)
 53:   1233.45   0.000621    3.14  0.000157  (-0.002374 -0.012291  0.000661)
 54:   1250.66   0.000589    2.97  0.000147  (-0.004494  0.011254  0.000105)
 55:   1287.26   0.013811   69.80  0.003348  ( 0.013642 -0.049220  0.027193)
 56:   1303.02   0.004409   22.28  0.001056  ( 0.018537 -0.012612  0.023520)
 57:   1304.65   0.005884   29.74  0.001407  (-0.016913  0.032556 -0.007841)
 58:   1342.96   0.000373    1.89  0.000087  ( 0.003395  0.005366 -0.006814)
 59:   1350.62   0.000581    2.94  0.000134  ( 0.002590  0.010226 -0.004798)
 60:   1365.37   0.000930    4.70  0.000213  ( 0.011578 -0.007439  0.004811)
 61:   1398.87   0.000925    4.67  0.000206  ( 0.006556  0.012743  0.000963)
 62:   1410.90   0.000176    0.89  0.000039  (-0.006043 -0.001495  0.000414)
 63:   1415.93   0.003806   19.24  0.000839  ( 0.019693 -0.005944  0.020390)
 64:   1424.75   0.002534   12.80  0.000555  (-0.009495  0.014465 -0.015986)
 65:   1452.57   0.003873   19.57  0.000832  ( 0.026838  0.010552  0.000629)
 66:   1476.38   0.002087   10.55  0.000441  (-0.010412  0.016629  0.007496)
 67:   1477.82   0.004292   21.69  0.000906  (-0.006778 -0.027126  0.011160)
 68:   1485.93   0.014454   73.04  0.003035  ( 0.013026 -0.034818  0.040663)
 69:   1489.60   0.002525   12.76  0.000529  ( 0.013008 -0.011715 -0.014918)
 70:   1505.27   0.007234   36.56  0.001500  (-0.014793  0.022835 -0.027558)
 71:   1506.39   0.003246   16.40  0.000672  (-0.012410  0.022091  0.005520)
 72:   1513.55   0.000587    2.97  0.000121  ( 0.000611 -0.008362 -0.007124)
 73:   1556.84   0.034907  176.40  0.006997  (-0.057110 -0.002191 -0.061078)
 74:   1586.99   0.087481  442.10  0.017202  ( 0.104212 -0.036929  0.070557)
 75:   1598.74   0.028315  143.09  0.005527  ( 0.048375 -0.047711  0.030172)
 76:   1626.82   0.053237  269.04  0.010212  ( 0.042584  0.088304 -0.024519)
 77:   1663.89   0.068139  344.35  0.012780  ( 0.031767  0.080978 -0.072201)
 78:   1681.78   0.041694  210.70  0.007737  (-0.030448 -0.049803  0.065796)
 79:   1803.56   0.052146  263.52  0.009023  (-0.085033 -0.042325  0.000808)
 80:   2630.72   0.329731  1666.33  0.039114  ( 0.080460  0.166285 -0.070634)
 81:   3017.75   0.003054   15.44  0.000316  (-0.013717  0.010644 -0.003796)
 82:   3071.59   0.000682    3.45  0.000069  (-0.007323  0.003709 -0.001382)
 83:   3089.33   0.005378   27.18  0.000543  ( 0.017749 -0.011442  0.009864)
 84:   3089.85   0.001056    5.34  0.000107  ( 0.005944 -0.002115 -0.008178)
 85:   3093.55   0.000125    0.63  0.000013  (-0.001944 -0.001001 -0.002805)
 86:   3115.63   0.001129    5.71  0.000113  (-0.000017  0.009995  0.003634)
 87:   3119.63   0.000067    0.34  0.000007  (-0.000619  0.001083 -0.002276)
 88:   3144.90   0.001287    6.50  0.000128  ( 0.004862  0.008726  0.005281)
 89:   3161.32   0.001266    6.40  0.000125  (-0.002416  0.006136  0.009026)
 90:   3172.04   0.000044    0.22  0.000004  (-0.000102  0.000172 -0.002081)
 91:   3176.51   0.000243    1.23  0.000024  (-0.003127  0.000102  0.003758)
 92:   3196.00   0.000282    1.42  0.000027  (-0.003431 -0.003752  0.001279)
 93:   3201.27   0.000050    0.25  0.000005  (-0.001385 -0.001475  0.000866)
 94:   3207.36   0.000304    1.54  0.000030  (-0.001557  0.002440 -0.004609)
 95:   3476.18   0.018400   92.99  0.001652  (-0.000617 -0.015125  0.037718)
 96:   3536.14   0.035686  180.34  0.003149  (-0.000207  0.042849 -0.036238)
 97:   3542.59   0.017093   86.38  0.001506  (-0.025996  0.027446  0.008756)
 98:   3644.67   0.008748   44.21  0.000749  (-0.023349 -0.014174  0.001728)

--------------------------
THERMOCHEMISTRY AT 298.15K
--------------------------

Temperature         ... 298.15 K
Pressure            ... 1.00 atm
Total Mass          ... 201.27 AMU

Throughout the following assumptions are being made:
  (1) The electronic state is orbitally nondegenerate
      but the spin degeneracy is treated
  (2) There are no thermally accessible electronically excited states
  (3) Hindered rotations indicated by low frequency modes are not
      treated as such but are treated as vibrations and this may
      cause some error
  (4) All equations used are the standard statistical mechanics
      equations for an ideal gas
  (5) All vibrations are strictly harmonic

freq.      46.23  E(vib)   ...       0.53
freq.      56.14  E(vib)   ...       0.52
freq.      77.87  E(vib)   ...       0.49
freq.      90.96  E(vib)   ...       0.47
freq.      97.52  E(vib)   ...       0.46
freq.     111.67  E(vib)   ...       0.45
freq.     127.97  E(vib)   ...       0.43
freq.     156.33  E(vib)   ...       0.40
freq.     177.90  E(vib)   ...       0.37
freq.     181.84  E(vib)   ...       0.37
freq.     203.66  E(vib)   ...       0.35
freq.     214.63  E(vib)   ...       0.34
freq.     244.55  E(vib)   ...       0.31
freq.     287.44  E(vib)   ...       0.27
freq.     309.04  E(vib)   ...       0.26
freq.     314.41  E(vib)   ...       0.25
freq.     320.24  E(vib)   ...       0.25
freq.     369.17  E(vib)   ...       0.21
freq.     393.97  E(vib)   ...       0.20
freq.     431.45  E(vib)   ...       0.18
freq.     475.32  E(vib)   ...       0.15
freq.     530.53  E(vib)   ...       0.13
freq.     548.50  E(vib)   ...       0.12
freq.     574.32  E(vib)   ...       0.11
freq.     622.30  E(vib)   ...       0.09
freq.     661.39  E(vib)   ...       0.08
freq.     701.97  E(vib)   ...       0.07
freq.     728.73  E(vib)   ...       0.06
freq.     761.15  E(vib)   ...       0.06
freq.     789.54  E(vib)   ...       0.05
freq.     839.39  E(vib)   ...       0.04
freq.     904.83  E(vib)   ...       0.03
freq.     924.72  E(vib)   ...       0.03
freq.     960.24  E(vib)   ...       0.03
freq.    1004.44  E(vib)   ...       0.02
freq.    1019.25  E(vib)   ...       0.02
freq.    1025.99  E(vib)   ...       0.02
freq.    1043.17  E(vib)   ...       0.02
freq.    1066.76  E(vib)   ...       0.02
freq.    1068.70  E(vib)   ...       0.02
freq.    1075.49  E(vib)   ...       0.02
freq.    1119.68  E(vib)   ...       0.01
freq.    1131.12  E(vib)   ...       0.01
freq.    1144.44  E(vib)   ...       0.01
freq.    1155.26  E(vib)   ...       0.01
freq.    1181.94  E(vib)   ...       0.01
freq.    1191.18  E(vib)   ...       0.01
freq.    1233.45  E(vib)   ...       0.01
freq.    1250.66  E(vib)   ...       0.01
freq.    1287.26  E(vib)   ...       0.01
freq.    1303.02  E(vib)   ...       0.01
freq.    1304.65  E(vib)   ...       0.01
freq.    1342.96  E(vib)   ...       0.01
freq.    1350.62  E(vib)   ...       0.01
freq.    1365.37  E(vib)   ...       0.01
freq.    1398.87  E(vib)   ...       0.00
freq.    1410.90  E(vib)   ...       0.00
freq.    1415.93  E(vib)   ...       0.00
freq.    1424.75  E(vib)   ...       0.00
freq.    1452.57  E(vib)   ...       0.00
freq.    1476.38  E(vib)   ...       0.00
freq.    1477.82  E(vib)   ...       0.00
freq.    1485.93  E(vib)   ...       0.00
freq.    1489.60  E(vib)   ...       0.00
freq.    1505.27  E(vib)   ...       0.00
freq.    1506.39  E(vib)   ...       0.00
freq.    1513.55  E(vib)   ...       0.00
freq.    1556.84  E(vib)   ...       0.00
freq.    1586.99  E(vib)   ...       0.00
freq.    1598.74  E(vib)   ...       0.00
freq.    1626.82  E(vib)   ...       0.00
freq.    1663.89  E(vib)   ...       0.00
freq.    1681.78  E(vib)   ...       0.00
freq.    1803.56  E(vib)   ...       0.00
freq.    2630.72  E(vib)   ...       0.00
freq.    3017.75  E(vib)   ...       0.00
freq.    3071.59  E(vib)   ...       0.00
freq.    3089.33  E(vib)   ...       0.00
freq.    3089.85  E(vib)   ...       0.00
freq.    3093.55  E(vib)   ...       0.00
freq.    3115.63  E(vib)   ...       0.00
freq.    3119.63  E(vib)   ...       0.00
freq.    3144.90  E(vib)   ...       0.00
freq.    3161.32  E(vib)   ...       0.00
freq.    3172.04  E(vib)   ...       0.00
freq.    3176.51  E(vib)   ...       0.00
freq.    3196.00  E(vib)   ...       0.00
freq.    3201.27  E(vib)   ...       0.00
freq.    3207.36  E(vib)   ...       0.00
freq.    3476.18  E(vib)   ...       0.00
freq.    3536.14  E(vib)   ...       0.00
freq.    3542.59  E(vib)   ...       0.00
freq.    3644.67  E(vib)   ...       0.00

------------
INNER ENERGY
------------

The inner energy is: U= E(el) + E(ZPE) + E(vib) + E(rot) + E(trans)
    E(el)   - is the total energy from the electronic structure calculation
              = E(kin-el) + E(nuc-el) + E(el-el) + E(nuc-nuc)
    E(ZPE)  - the the zero temperature vibrational energy from the frequency calculation
    E(vib)  - the the finite temperature correction to E(ZPE) due to population
              of excited vibrational states
    E(rot)  - is the rotational thermal energy
    E(trans)- is the translational thermal energy

Summary of contributions to the inner energy U:
Electronic energy                ...   -668.83983191 Eh
Zero point energy                ...      0.29312034 Eh     183.94 kcal/mol
Thermal vibrational correction   ...      0.01351944 Eh       8.48 kcal/mol
Thermal rotational correction    ...      0.00141627 Eh       0.89 kcal/mol
Thermal translational correction ...      0.00141627 Eh       0.89 kcal/mol
-----------------------------------------------------------------------
Total thermal energy                   -668.53035959 Eh

Summary of corrections to the electronic energy:
(perhaps to be used in another calculation)
Total thermal correction                  0.01635198 Eh      10.26 kcal/mol
Non-thermal (ZPE) correction              0.29312034 Eh     183.94 kcal/mol
-----------------------------------------------------------------------
Total correction                          0.30947232 Eh     194.20 kcal/mol

--------
ENTHALPY
--------

The enthalpy is H = U + kB*T
                kB is Boltzmann's constant
Total free energy                 ...   -668.53035959 Eh
Thermal Enthalpy correction       ...      0.00094421 Eh       0.59 kcal/mol
-----------------------------------------------------------------------
Total Enthalpy                    ...   -668.52941538 Eh

Note: Only C1 symmetry has been detected, increase convergence thresholds
      if your molecule has a higher symmetry. Symmetry factor of 1.0 is
      used for the rotational entropy correction.

Note: Rotational entropy computed according to Herzberg

Rotational constants in cm-1:     0.030750     0.013697     0.010236

                             ****ORCA TERMINATED NORMALLY****
TOTAL RUN TIME: 0 days 0 hours 35 minutes 5 seconds 547 msec
