                         Program Version 5.0.4 -  RELEASE  -
|  1> ! B3LYP EPR-II OPT
|  2> %pal nprocs 16 end
|  3> *XYZFile 1 2 model.xyz
|  4>
|  5>                          ****END OF INPUT****
 Total Charge           Charge          ....    1
 Multiplicity           Mult            ....    2
 Number of Electrons    NEL             ....  109
FINAL SINGLE POINT ENERGY      -668.617309068794
FINAL SINGLE POINT ENERGY      -668.613175562539
FINAL SINGLE POINT ENERGY      -668.606558985073
FINAL SINGLE POINT ENERGY      -668.617794412023
FINAL SINGLE POINT ENERGY      -668.615626564044
FINAL SINGLE POINT ENERGY      -668.619076184802
FINAL SINGLE POINT ENERGY      -668.619230888609
FINAL SINGLE POINT ENERGY      -668.619345022593
FINAL SINGLE POINT ENERGY      -668.619367845406
FINAL SINGLE POINT ENERGY      -668.619386727926
FINAL SINGLE POINT ENERGY      -668.619466327154
FINAL SINGLE POINT ENERGY      -668.619487896167
FINAL SINGLE POINT ENERGY      -668.619503396432
FINAL SINGLE POINT ENERGY      -668.619522643552
FINAL SINGLE POINT ENERGY      -668.619534238938
FINAL SINGLE POINT ENERGY      -668.619547524723
FINAL SINGLE POINT ENERGY      -668.619546044746
FINAL SINGLE POINT ENERGY      -668.619554306384
FINAL SINGLE POINT ENERGY      -668.619554953083
                    ***********************HURRAY********************

CARTESIAN COORDINATES (ANGSTROEM)
---------------------------------
  N     -7.838166    1.499810    0.369687
  C     -6.418375    1.691405    0.704709
  C     -6.003048    0.379748    1.440199
  O     -6.836146   -0.501945    1.645777
  C     -6.165133    2.912765    1.560903
  C     -6.180620    4.302871    0.984545
  C     -5.088001    4.590245   -0.089258
  C     -5.545418    5.587117   -1.162981
  N     -6.412804    4.891450   -2.198798
  H     -6.079899    5.033220    1.792783
  H     -7.173411    4.477148    0.540898
  H     -4.760184    3.666705   -0.581755
  H     -4.198036    5.001355    0.395781
  H     -4.705570    6.037646   -1.696177
  H     -6.149617    6.388343   -0.731385
  H     -6.989888    5.557001   -2.716829
  H     -7.053099    4.147808   -1.765277
  H     -8.234283    0.681440    0.831588
  C     -8.496178    2.101102   -0.633789
  N     -4.702829    0.317235    1.812797
  H     -4.120555    1.123943    1.640651
  O     -7.984807    3.008824   -1.335194
  H     -5.830153    4.403499   -2.882250
  C     -4.126149   -0.822911    2.529744
  H     -4.903137   -1.577690    2.646079
  H     -3.292953   -1.247595    1.963000
  H     -3.772518   -0.516581    3.518558
  C     -9.913818    1.642258   -0.903696
  H    -10.584443    2.502002   -0.819257
  H     -9.970896    1.280002   -1.934200
  H    -10.246752    0.855469   -0.224760
  H     -5.858027    1.754549   -0.237368
  H     -6.303655    2.796443    2.633366

 Multiplicity           Mult            ....    2
 Number of Electrons    NEL             ....  109
 Basis Dimension        Dim             ....  371

ORBITAL ENERGIES
----------------
                 SPIN UP ORBITALS
  NO   OCC          E(Eh)            E(eV)
   0   1.0000     -19.251615      -523.8631
   1   1.0000     -19.228348      -523.2299
   2   1.0000     -14.581031      -396.7700
   3   1.0000     -14.487823      -394.2337
   4   1.0000     -14.474605      -393.8740
   5   1.0000     -10.433254      -283.9033
   6   1.0000     -10.412212      -283.3307
   7   1.0000     -10.397689      -282.9355
   8   1.0000     -10.369824      -282.1773
   9   1.0000     -10.343956      -281.4734
  10   1.0000     -10.334887      -281.2266
  11   1.0000     -10.327867      -281.0355
  12   1.0000     -10.311665      -280.5947
  13   1.0000     -10.302491      -280.3450
  14   1.0000      -1.171097       -31.8672
  15   1.0000      -1.152524       -31.3618
  16   1.0000      -1.135622       -30.9019
  17   1.0000      -1.054371       -28.6909
  18   1.0000      -1.034732       -28.1565
  19   1.0000      -0.948793       -25.8180
  20   1.0000      -0.909828       -24.7577
  21   1.0000      -0.861965       -23.4553
  22   1.0000      -0.839799       -22.8521
  23   1.0000      -0.802939       -21.8491
  24   1.0000      -0.779372       -21.2078
  25   1.0000      -0.740141       -20.1403
  26   1.0000      -0.725577       -19.7440
  27   1.0000      -0.713534       -19.4163
  28   1.0000      -0.705155       -19.1882
  29   1.0000      -0.692579       -18.8460
  30   1.0000      -0.652306       -17.7502
  31   1.0000      -0.646210       -17.5843
  32   1.0000      -0.621437       -16.9102
  33   1.0000      -0.601862       -16.3775
  34   1.0000      -0.594487       -16.1768
  35   1.0000      -0.580034       -15.7835
  36   1.0000      -0.567664       -15.4469
  37   1.0000      -0.564152       -15.3514
  38   1.0000      -0.556893       -15.1538
  39   1.0000      -0.554632       -15.0923
  40   1.0000      -0.539072       -14.6689
  41   1.0000      -0.532012       -14.4768
  42   1.0000      -0.517339       -14.0775
  43   1.0000      -0.512883       -13.9563
  44   1.0000      -0.505301       -13.7499
  45   1.0000      -0.494066       -13.4442
  46   1.0000      -0.491275       -13.3683
  47   1.0000      -0.486373       -13.2349
  48   1.0000      -0.482966       -13.1422
  49   1.0000      -0.471628       -12.8336
  50   1.0000      -0.407029       -11.0758
  51   1.0000      -0.402569       -10.9545
  52   1.0000      -0.379193       -10.3184
  53   1.0000      -0.368296       -10.0218
  54   1.0000      -0.335920        -9.1409
  55   0.0000      -0.139201        -3.7879
  56   0.0000      -0.116955        -3.1825
  57   0.0000      -0.101225        -2.7545
  58   0.0000      -0.096414        -2.6236
  59   0.0000      -0.089620        -2.4387

                 SPIN DOWN ORBITALS
  NO   OCC          E(Eh)            E(eV)
   0   1.0000     -19.251438      -523.8583
   1   1.0000     -19.228274      -523.2279
   2   1.0000     -14.581026      -396.7699
   3   1.0000     -14.486205      -394.1897
   4   1.0000     -14.474331      -393.8666
   5   1.0000     -10.433294      -283.9044
   6   1.0000     -10.412090      -283.3274
   7   1.0000     -10.397668      -282.9349
   8   1.0000     -10.370576      -282.1977
   9   1.0000     -10.343176      -281.4521
  10   1.0000     -10.328657      -281.0570
  11   1.0000     -10.321138      -280.8525
  12   1.0000     -10.311667      -280.5947
  13   1.0000     -10.302432      -280.3434
  14   1.0000      -1.170525       -31.8516
  15   1.0000      -1.152285       -31.3553
  16   1.0000      -1.135562       -30.9002
  17   1.0000      -1.051548       -28.6141
  18   1.0000      -1.034127       -28.1400
  19   1.0000      -0.943387       -25.6709
  20   1.0000      -0.902817       -24.5669
  21   1.0000      -0.857817       -23.3424
  22   1.0000      -0.838979       -22.8298
  23   1.0000      -0.799888       -21.7661
  24   1.0000      -0.775229       -21.0951
  25   1.0000      -0.738231       -20.0883
  26   1.0000      -0.723249       -19.6806
  27   1.0000      -0.711557       -19.3625
  28   1.0000      -0.700031       -19.0488
  29   1.0000      -0.686767       -18.6879
  30   1.0000      -0.650861       -17.7108
  31   1.0000      -0.644782       -17.5454
  32   1.0000      -0.618069       -16.8185
  33   1.0000      -0.599348       -16.3091
  34   1.0000      -0.592058       -16.1107
  35   1.0000      -0.577306       -15.7093
  36   1.0000      -0.566009       -15.4019
  37   1.0000      -0.563558       -15.3352
  38   1.0000      -0.555439       -15.1143
  39   1.0000      -0.552232       -15.0270
  40   1.0000      -0.537301       -14.6207
  41   1.0000      -0.530349       -14.4315
  42   1.0000      -0.515840       -14.0367
  43   1.0000      -0.510612       -13.8945
  44   1.0000      -0.500603       -13.6221
  45   1.0000      -0.492733       -13.4079
  46   1.0000      -0.491070       -13.3627
  47   1.0000      -0.485057       -13.1991
  48   1.0000      -0.478855       -13.0303
  49   1.0000      -0.469634       -12.7794
  50   1.0000      -0.405634       -11.0379
  51   1.0000      -0.398417       -10.8415
  52   1.0000      -0.377651       -10.2764
  53   1.0000      -0.367312        -9.9951
  54   0.0000      -0.196148        -5.3375
  55   0.0000      -0.139074        -3.7844
  56   0.0000      -0.115565        -3.1447
  57   0.0000      -0.100641        -2.7386
  58   0.0000      -0.095852        -2.6083

MULLIKEN ATOMIC CHARGES AND SPIN POPULATIONS
--------------------------------------------
   0 N :   -0.060649    0.039408
   1 C :   -0.114593   -0.034823
   2 C :    0.071617   -0.001828
   3 O :   -0.313740    0.001550
   4 C :   -0.117778    0.996137
   5 C :   -0.261897   -0.062092
   6 C :   -0.251807    0.031110
   7 C :   -0.276766    0.004400
   8 N :   -0.361121    0.000261
   9 H :    0.165504    0.002455
  10 H :    0.156754    0.048203
  11 H :    0.151019   -0.002487
  12 H :    0.179612   -0.000997
  13 H :    0.191782   -0.000191
  14 H :    0.206775   -0.000164
  15 H :    0.314785    0.000011
  16 H :    0.334582   -0.000132
  17 H :    0.273080    0.000840
  18 C :    0.160445   -0.002160
  19 N :   -0.080768    0.012266
  20 H :    0.233641   -0.000182
  21 O :   -0.344760    0.004990
  22 H :    0.311279    0.000077
  23 C :   -0.443787   -0.000305
  24 H :    0.207164    0.000692
  25 H :    0.175825    0.000166
  26 H :    0.176447    0.000408
  27 C :   -0.528245    0.002595
  28 H :    0.191471    0.000765
  29 H :    0.195712   -0.000331
  30 H :    0.169201   -0.000040
  31 H :    0.151737    0.008379
  32 H :    0.137477   -0.048978
Sum of atomic charges         :    1.0000000

LOEWDIN ATOMIC CHARGES AND SPIN POPULATIONS
-------------------------------------------
   0 N :    0.104647    0.044960
   1 C :   -0.054035    0.015707
   2 C :   -0.095314    0.004070
   3 O :   -0.171066    0.002539
   4 C :   -0.017277    0.811355
   5 C :   -0.073192    0.011467
   6 C :   -0.062016    0.029015
   7 C :    0.013394    0.002210
   8 N :    0.316104    0.000270
   9 H :    0.056302    0.001586
  10 H :    0.059652    0.039705
  11 H :    0.049159    0.000330
  12 H :    0.059959   -0.000044
  13 H :    0.051860    0.000126
  14 H :    0.059835    0.000155
  15 H :    0.111169    0.000001
  16 H :    0.095884    0.000016
  17 H :    0.106807    0.001387
  18 C :   -0.060613    0.001257
  19 N :    0.056364    0.009208
  20 H :    0.083278    0.002097
  21 O :   -0.242870    0.004965
  22 H :    0.112560    0.000049
  23 C :    0.028895    0.000272
  24 H :    0.057968    0.000324
  25 H :    0.038115    0.000093
  26 H :    0.038591    0.000275
  27 C :   -0.016254    0.001962
  28 H :    0.061835    0.000515
  29 H :    0.063990   -0.000197
  30 H :    0.045931    0.000089
  31 H :    0.066204    0.007458
  32 H :    0.054135    0.006778

  Mayer bond orders larger than 0.100000
B(  0-N ,  1-C ) :   1.0110 B(  0-N , 17-H ) :   0.8659 B(  0-N , 18-C ) :   1.3796
B(  1-C ,  2-C ) :   0.8945 B(  1-C ,  4-C ) :   1.0228 B(  1-C , 21-O ) :   0.1152
B(  1-C , 31-H ) :   0.9596 B(  2-C ,  3-O ) :   1.8705 B(  2-C , 19-N ) :   1.2203
B(  4-C ,  5-C ) :   1.0166 B(  4-C , 32-H ) :   0.9624 B(  5-C ,  6-C ) :   0.9450
B(  5-C ,  9-H ) :   0.9630 B(  5-C , 10-H ) :   0.9428 B(  6-C ,  7-C ) :   0.9566
B(  6-C , 11-H ) :   0.9656 B(  6-C , 12-H ) :   0.9617 B(  7-C ,  8-N ) :   0.9243
B(  7-C , 13-H ) :   0.9531 B(  7-C , 14-H ) :   0.9474 B(  8-N , 15-H ) :   0.9009
B(  8-N , 16-H ) :   0.7152 B(  8-N , 22-H ) :   0.9043 B( 16-H , 21-O ) :   0.1820
B( 18-C , 21-O ) :   1.6333 B( 18-C , 27-C ) :   0.9315 B( 19-N , 20-H ) :   0.9266
B( 19-N , 23-C ) :   0.9589 B( 23-C , 24-H ) :   0.9436 B( 23-C , 25-H ) :   0.9563
B( 23-C , 26-H ) :   0.9542 B( 27-C , 28-H ) :   0.9469 B( 27-C , 29-H ) :   0.9451
B( 27-C , 30-H ) :   0.9665

FINAL SINGLE POINT ENERGY      -668.619555656279

DIPOLE MOMENT
-------------
                                X             Y             Z
Electronic contribution:     -2.92599      -5.52581       0.95555
Nuclear contribution   :      4.06053       8.73655      -3.12713
                        -----------------------------------------
Total Dipole Moment    :      1.13455       3.21074      -2.17158
                        -----------------------------------------
Magnitude (a.u.)       :      4.03879
Magnitude (Debye)      :     10.26579

Rotational constants in cm-1:     0.027127     0.014227     0.010242
Rotational constants in MHz :   813.261796   426.524177   307.059305

                             ****ORCA TERMINATED NORMALLY****
TOTAL RUN TIME: 0 days 0 hours 18 minutes 15 seconds 811 msec
