                         Program Version 5.0.4 -  RELEASE  -
|  1> ! B3LYP EPR-II AUTOAUX
|  2> %pal nprocs 16 end
|  3> *XYZFile 1 2 opt.xyz
|  4> %EPRNMR
|  5>         GTENSOR   TRUE
|  6>         NUCLEI    = 9,10,16,30,31,32,33 {SHIFT, AISO, ADIP, AORB}
|  7>         ORI       GIAO
|  8> END
|  9>
| 10>                          ****END OF INPUT****

CARTESIAN COORDINATES (ANGSTROEM)
---------------------------------
  N     -7.877822    0.868081    0.069798
  C     -6.446808    0.881222    0.175807
  C     -6.112596    0.859714    1.684091
  O     -6.890456    1.371222    2.490157
  C     -5.761349    2.129137   -0.519886
  C     -6.182959    3.485647    0.052513
  C     -5.539998    4.616540   -0.778935
  C     -6.021734    6.023916   -0.243127
  N     -5.455340    7.100302   -0.996140
  H     -5.853674    7.359766   -1.890585
  H     -8.383843    1.137654    0.909474
  C     -8.538825    0.533321   -1.104459
  N     -4.925612    0.290700    2.011777
  H     -4.413769   -0.195659    1.288829
  O     -7.893841    0.278941   -2.117906
  H     -4.489297    7.368281   -0.850836
  C     -4.478392    0.132906    3.398599
  H     -4.696129   -0.873968    3.769004
  H     -3.402475    0.313082    3.456881
  H     -5.008880    0.857811    4.015584
  C    -10.053034    0.484525   -1.034380
  H    -10.463890    0.932778   -1.940942
  H    -10.360476   -0.566264   -1.015388
  H    -10.460539    0.984245   -0.152376
  H     -6.055080    0.008472   -0.360192
  H     -4.677062    1.996200   -0.440467
  H     -6.027440    2.045483   -1.579102
  H     -5.882787    3.584280    1.100923
  H     -7.274453    3.578607    0.021471
  H     -4.447681    4.577103   -0.713422
  H     -5.817493    4.528532   -1.834544
  H     -5.721622    6.120131    0.804710
  H     -7.111711    6.075265   -0.311696

 Total Charge           Charge          ....    1
 Multiplicity           Mult            ....    2
 Number of Electrons    NEL             ....  109
 Basis Dimension        Dim             ....  371

ORBITAL ENERGIES
----------------
                 SPIN UP ORBITALS
  NO   OCC          E(Eh)            E(eV)
   0   1.0000     -19.249790      -523.8134
   1   1.0000     -19.249045      -523.7931
   2   1.0000     -14.540651      -395.6712
   3   1.0000     -14.509813      -394.8321
   4   1.0000     -14.498130      -394.5142
   5   1.0000     -10.429313      -283.7960
   6   1.0000     -10.425894      -283.7030
   7   1.0000     -10.383636      -282.5531
   8   1.0000     -10.381109      -282.4843
   9   1.0000     -10.344178      -281.4794
  10   1.0000     -10.333784      -281.1966
  11   1.0000     -10.328341      -281.0484
  12   1.0000     -10.328000      -281.0392
  13   1.0000     -10.300658      -280.2952
  14   1.0000      -1.176315       -32.0092
  15   1.0000      -1.167022       -31.7563
  16   1.0000      -1.087738       -29.5989
  17   1.0000      -1.065694       -28.9990
  18   1.0000      -1.054563       -28.6961
  19   1.0000      -0.945879       -25.7387
  20   1.0000      -0.903581       -24.5877
  21   1.0000      -0.857784       -23.3415
  22   1.0000      -0.842744       -22.9322
  23   1.0000      -0.809816       -22.0362
  24   1.0000      -0.771548       -20.9949
  25   1.0000      -0.741326       -20.1725
  26   1.0000      -0.719836       -19.5877
  27   1.0000      -0.707340       -19.2477
  28   1.0000      -0.706307       -19.2196
  29   1.0000      -0.666046       -18.1240
  30   1.0000      -0.634710       -17.2713
  31   1.0000      -0.615599       -16.7513
  32   1.0000      -0.611640       -16.6436
  33   1.0000      -0.601988       -16.3809
  34   1.0000      -0.594787       -16.1850
  35   1.0000      -0.580479       -15.7956
  36   1.0000      -0.571190       -15.5429
  37   1.0000      -0.564987       -15.3741
  38   1.0000      -0.556319       -15.1382
  39   1.0000      -0.548277       -14.9194
  40   1.0000      -0.533684       -14.5223
  41   1.0000      -0.527310       -14.3488
  42   1.0000      -0.512923       -13.9573
  43   1.0000      -0.510250       -13.8846
  44   1.0000      -0.508500       -13.8370
  45   1.0000      -0.504699       -13.7336
  46   1.0000      -0.494270       -13.4498
  47   1.0000      -0.489319       -13.3150
  48   1.0000      -0.478575       -13.0227
  49   1.0000      -0.472887       -12.8679
  50   1.0000      -0.433965       -11.8088
  51   1.0000      -0.409086       -11.1318
  52   1.0000      -0.397540       -10.8176
  53   1.0000      -0.386470       -10.5164
  54   1.0000      -0.385652       -10.4941
  55   0.0000      -0.121611        -3.3092
  56   0.0000      -0.115207        -3.1349
  57   0.0000      -0.105496        -2.8707
  58   0.0000      -0.099105        -2.6968
  59   0.0000      -0.090213        -2.4548

                 SPIN DOWN ORBITALS
  NO   OCC          E(Eh)            E(eV)
   0   1.0000     -19.248751      -523.7851
   1   1.0000     -19.246361      -523.7201
   2   1.0000     -14.531137      -395.4124
   3   1.0000     -14.505672      -394.7194
   4   1.0000     -14.497101      -394.4862
   5   1.0000     -10.429411      -283.7987
   6   1.0000     -10.426709      -283.7252
   7   1.0000     -10.383349      -282.5453
   8   1.0000     -10.380568      -282.4696
   9   1.0000     -10.342497      -281.4337
  10   1.0000     -10.332837      -281.1708
  11   1.0000     -10.328329      -281.0481
  12   1.0000     -10.327609      -281.0285
  13   1.0000     -10.300630      -280.2944
  14   1.0000      -1.173212       -31.9247
  15   1.0000      -1.163003       -31.6469
  16   1.0000      -1.068360       -29.0715
  17   1.0000      -1.057437       -28.7743
  18   1.0000      -1.052242       -28.6330
  19   1.0000      -0.941403       -25.6169
  20   1.0000      -0.898573       -24.4514
  21   1.0000      -0.854372       -23.2486
  22   1.0000      -0.840958       -22.8836
  23   1.0000      -0.806619       -21.9492
  24   1.0000      -0.767956       -20.8971
  25   1.0000      -0.738482       -20.0951
  26   1.0000      -0.718536       -19.5524
  27   1.0000      -0.704773       -19.1778
  28   1.0000      -0.700391       -19.0586
  29   1.0000      -0.664392       -18.0790
  30   1.0000      -0.629452       -17.1283
  31   1.0000      -0.613178       -16.6854
  32   1.0000      -0.607805       -16.5392
  33   1.0000      -0.595286       -16.1985
  34   1.0000      -0.592834       -16.1318
  35   1.0000      -0.578031       -15.7290
  36   1.0000      -0.568437       -15.4680
  37   1.0000      -0.555010       -15.1026
  38   1.0000      -0.552346       -15.0301
  39   1.0000      -0.544468       -14.8157
  40   1.0000      -0.531613       -14.4659
  41   1.0000      -0.520857       -14.1732
  42   1.0000      -0.512021       -13.9328
  43   1.0000      -0.509662       -13.8686
  44   1.0000      -0.504190       -13.7197
  45   1.0000      -0.503694       -13.7062
  46   1.0000      -0.488175       -13.2839
  47   1.0000      -0.486422       -13.2362
  48   1.0000      -0.476217       -12.9585
  49   1.0000      -0.463572       -12.6144
  50   1.0000      -0.397736       -10.8229
  51   1.0000      -0.387892       -10.5551
  52   1.0000      -0.381860       -10.3909
  53   1.0000      -0.367281        -9.9942
  54   0.0000      -0.338370        -9.2075
  55   0.0000      -0.119007        -3.2383
  56   0.0000      -0.112959        -3.0738
  57   0.0000      -0.101230        -2.7546
  58   0.0000      -0.097772        -2.6605

MULLIKEN ATOMIC CHARGES AND SPIN POPULATIONS
--------------------------------------------
   0 N :   -0.061430    0.208929
   1 C :   -0.135854    0.018868
   2 C :    0.090803   -0.007250
   3 O :   -0.289389    0.040089
   4 C :   -0.266841    0.053050
   5 C :   -0.226111    0.017816
   6 C :   -0.293380    0.084908
   7 C :   -0.268715    0.004754
   8 N :   -0.291518    0.477507
   9 H :    0.292262   -0.015505
  10 H :    0.275397   -0.007930
  11 C :    0.168551   -0.045855
  12 N :   -0.092964    0.045458
  13 H :    0.248024   -0.001659
  14 O :   -0.240749    0.106124
  15 H :    0.290572   -0.015541
  16 C :   -0.435702    0.001049
  17 H :    0.191809    0.002845
  18 H :    0.173014    0.002386
  19 H :    0.202434    0.000204
  20 C :   -0.523552    0.002164
  21 H :    0.201927   -0.000734
  22 H :    0.207915   -0.001185
  23 H :    0.159040   -0.000377
  24 H :    0.184704    0.013538
  25 H :    0.163723   -0.001247
  26 H :    0.196246    0.002587
  27 H :    0.173598    0.000745
  28 H :    0.157243   -0.000752
  29 H :    0.175382   -0.001151
  30 H :    0.175400   -0.002773
  31 H :    0.200124    0.010602
  32 H :    0.198037    0.008334
Sum of atomic charges         :    1.0000000

LOEWDIN ATOMIC CHARGES AND SPIN POPULATIONS
-------------------------------------------
   0 N :    0.132412    0.174778
   1 C :   -0.030954    0.035917
   2 C :   -0.096536    0.000986
   3 O :   -0.159358    0.036483
   4 C :   -0.026188    0.045409
   5 C :   -0.056293    0.018290
   6 C :   -0.045153    0.078158
   7 C :   -0.013301    0.034830
   8 N :    0.175002    0.413909
   9 H :    0.091340    0.004372
  10 H :    0.106009    0.002001
  11 C :   -0.079944   -0.024726
  12 N :    0.072356    0.039347
  13 H :    0.089331    0.000276
  14 O :   -0.119113    0.099409
  15 H :    0.090903    0.004315
  16 C :    0.033137    0.002394
  17 H :    0.044446    0.002355
  18 H :    0.041392    0.002101
  19 H :    0.056377    0.000423
  20 C :   -0.021098    0.000240
  21 H :    0.063713   -0.000592
  22 H :    0.069100   -0.001188
  23 H :    0.042097   -0.000323
  24 H :    0.077410    0.010264
  25 H :    0.055134    0.000152
  26 H :    0.066515    0.003211
  27 H :    0.057406    0.000740
  28 H :    0.053685    0.000378
  29 H :    0.052329    0.000082
  30 H :    0.053044   -0.000512
  31 H :    0.063255    0.009391
  32 H :    0.061546    0.007129

  Mayer bond orders larger than 0.100000
B(  0-N ,  1-C ) :   1.0635 B(  0-N ,  8-N ) :   0.1238 B(  0-N , 10-H ) :   0.8733
B(  0-N , 11-C ) :   1.1412 B(  1-C ,  2-C ) :   0.8866 B(  1-C ,  4-C ) :   0.8882
B(  1-C , 14-O ) :   0.1224 B(  1-C , 24-H ) :   0.9493 B(  2-C ,  3-O ) :   1.8583
B(  2-C , 12-N ) :   1.2241 B(  4-C ,  5-C ) :   0.9596 B(  4-C , 25-H ) :   0.9617
B(  4-C , 26-H ) :   0.9459 B(  5-C ,  6-C ) :   0.9444 B(  5-C , 27-H ) :   0.9562
B(  5-C , 28-H ) :   0.9688 B(  6-C ,  7-C ) :   0.8834 B(  6-C , 29-H ) :   0.9622
B(  6-C , 30-H ) :   0.9622 B(  7-C ,  8-N ) :   1.0471 B(  7-C , 31-H ) :   0.9400
B(  7-C , 32-H ) :   0.9440 B(  8-N ,  9-H ) :   0.9095 B(  8-N , 15-H ) :   0.9102
B( 11-C , 14-O ) :   1.9009 B( 11-C , 20-C ) :   0.9203 B( 12-N , 13-H ) :   0.9210
B( 12-N , 16-C ) :   0.9587 B( 16-C , 17-H ) :   0.9473 B( 16-C , 18-H ) :   0.9545
B( 16-C , 19-H ) :   0.9439 B( 20-C , 21-H ) :   0.9513 B( 20-C , 22-H ) :   0.9384
B( 20-C , 23-H ) :   0.9689

FINAL SINGLE POINT ENERGY      -668.593631175361

DIPOLE MOMENT
-------------
                                X             Y             Z
Electronic contribution:     -2.65006      -6.44113      -0.41556
Nuclear contribution   :      4.15447       9.32432       0.02409
                        -----------------------------------------
Total Dipole Moment    :      1.50442       2.88319      -0.39147
                        -----------------------------------------
Magnitude (a.u.)       :      3.27557
Magnitude (Debye)      :      8.32583

Rotational constants in cm-1:     0.019675     0.013066     0.008909
Rotational constants in MHz :   589.850756   391.695944   267.084690

CHEMICAL SHIELDING SUMMARY (ppm)  --  Orbital contribution
----------------------------------------------------------

  Nucleus  Element    Isotropic     Anisotropy
  -------  -------  ------------   ------------
      8       N          101.735        154.475
      9       H           26.214          8.066
     15       H           26.256          8.019
     29       H           29.998          4.352
     30       H           29.831          3.464
     31       H           28.058          4.806
     32       H           28.147          4.600

                             ****ORCA TERMINATED NORMALLY****
TOTAL RUN TIME: 0 days 0 hours 5 minutes 44 seconds 867 msec
