                         Program Version 5.0.4 -  RELEASE  -
|  1> ! M062X def2-TZVP OPT FREQ
|  2> %pal nprocs 16 end
|  3> *XYZFile 1 2 opt.xyz
|  4>
|  5>                          ****END OF INPUT****
 Total Charge           Charge          ....    1
 Multiplicity           Mult            ....    2
 Number of Electrons    NEL             ....  109
FINAL SINGLE POINT ENERGY      -668.791442205522
FINAL SINGLE POINT ENERGY      -668.795663957998
FINAL SINGLE POINT ENERGY      -668.796363194207
FINAL SINGLE POINT ENERGY      -668.796889494537
FINAL SINGLE POINT ENERGY      -668.797054839485
FINAL SINGLE POINT ENERGY      -668.797114284705
FINAL SINGLE POINT ENERGY      -668.797110020098
FINAL SINGLE POINT ENERGY      -668.796961875773
FINAL SINGLE POINT ENERGY      -668.796967118382
FINAL SINGLE POINT ENERGY      -668.797031281696
FINAL SINGLE POINT ENERGY      -668.796993579380
FINAL SINGLE POINT ENERGY      -668.797022141952
FINAL SINGLE POINT ENERGY      -668.797021973420
                    ***********************HURRAY********************

CARTESIAN COORDINATES (ANGSTROEM)
---------------------------------
  N     -7.910682    0.932811    0.030312
  C     -6.488616    0.869926    0.178344
  C     -6.168071    0.881812    1.670796
  O     -6.954524    1.362204    2.465455
  C     -5.765908    2.049226   -0.529184
  C     -6.092669    3.387806    0.131383
  C     -5.593030    4.486595   -0.791031
  C     -5.926289    5.915418   -0.086696
  N     -5.533380    6.921937   -0.955344
  H     -6.148366    7.251630   -1.691864
  H     -8.446234    1.076297    0.875383
  C     -8.504717    0.634352   -1.164574
  N     -4.952471    0.406513    1.999277
  H     -4.426979   -0.083919    1.293763
  O     -7.836295    0.420828   -2.155298
  H     -4.571815    7.243208   -0.991076
  C     -4.484932    0.351623    3.374211
  H     -4.652185   -0.633580    3.809954
  H     -3.422459    0.584129    3.409285
  H     -5.039316    1.087622    3.949849
  C    -10.008645    0.568710   -1.158637
  H    -10.382149    0.979826   -2.093345
  H    -10.302091   -0.480998   -1.115424
  H    -10.452733    1.090090   -0.312814
  H     -6.117493   -0.039590   -0.304952
  H     -4.689092    1.870820   -0.512926
  H     -6.097536    2.025205   -1.568445
  H     -5.619801    3.462937    1.112586
  H     -7.172037    3.468965    0.275713
  H     -4.514960    4.450089   -0.944990
  H     -6.098146    4.469553   -1.756108
  H     -5.352828    5.940488    0.838027
  H     -7.000617    5.935434    0.083602

 Multiplicity           Mult            ....    2
 Number of Electrons    NEL             ....  109
 Basis Dimension        Dim             ....  548

ORBITAL ENERGIES
----------------
                 SPIN UP ORBITALS
  NO   OCC          E(Eh)            E(eV)
   0   1.0000     -19.706624      -536.2445
   1   1.0000     -19.690239      -535.7986
   2   1.0000     -15.029650      -408.9776
   3   1.0000     -14.886824      -405.0911
   4   1.0000     -14.877051      -404.8251
   5   1.0000     -10.782842      -293.4160
   6   1.0000     -10.754858      -292.6546
   7   1.0000     -10.740705      -292.2694
   8   1.0000     -10.736148      -292.1454
   9   1.0000     -10.705462      -291.3104
  10   1.0000     -10.688662      -290.8533
  11   1.0000     -10.673627      -290.4442
  12   1.0000     -10.664872      -290.2059
  13   1.0000     -10.627236      -289.1818
  14   1.0000      -1.282259       -34.8921
  15   1.0000      -1.273890       -34.6643
  16   1.0000      -1.264420       -34.4066
  17   1.0000      -1.147457       -31.2239
  18   1.0000      -1.144446       -31.1420
  19   1.0000      -1.072201       -29.1761
  20   1.0000      -1.008110       -27.4321
  21   1.0000      -0.960766       -26.1438
  22   1.0000      -0.923141       -25.1200
  23   1.0000      -0.906892       -24.6778
  24   1.0000      -0.864138       -23.5144
  25   1.0000      -0.850801       -23.1515
  26   1.0000      -0.830014       -22.5858
  27   1.0000      -0.782878       -21.3032
  28   1.0000      -0.774234       -21.0680
  29   1.0000      -0.756989       -20.5987
  30   1.0000      -0.729503       -19.8508
  31   1.0000      -0.713901       -19.4262
  32   1.0000      -0.703417       -19.1409
  33   1.0000      -0.678388       -18.4599
  34   1.0000      -0.656238       -17.8571
  35   1.0000      -0.653826       -17.7915
  36   1.0000      -0.649128       -17.6637
  37   1.0000      -0.634513       -17.2660
  38   1.0000      -0.624724       -16.9996
  39   1.0000      -0.616455       -16.7746
  40   1.0000      -0.601238       -16.3605
  41   1.0000      -0.592854       -16.1324
  42   1.0000      -0.585013       -15.9190
  43   1.0000      -0.579448       -15.7676
  44   1.0000      -0.560193       -15.2436
  45   1.0000      -0.557767       -15.1776
  46   1.0000      -0.555687       -15.1210
  47   1.0000      -0.552925       -15.0459
  48   1.0000      -0.544390       -14.8136
  49   1.0000      -0.532208       -14.4821
  50   1.0000      -0.510124       -13.8812
  51   1.0000      -0.452249       -12.3063
  52   1.0000      -0.438779       -11.9398
  53   1.0000      -0.430927       -11.7261
  54   1.0000      -0.422941       -11.5088
  55   0.0000      -0.121134        -3.2962
  56   0.0000      -0.076738        -2.0881
  57   0.0000      -0.072913        -1.9841
  58   0.0000      -0.060046        -1.6339
  59   0.0000      -0.047418        -1.2903

                 SPIN DOWN ORBITALS
  NO   OCC          E(Eh)            E(eV)
   0   1.0000     -19.706628      -536.2446
   1   1.0000     -19.689933      -535.7903
   2   1.0000     -15.020841      -408.7379
   3   1.0000     -14.886702      -405.0878
   4   1.0000     -14.876422      -404.8080
   5   1.0000     -10.782534      -293.4077
   6   1.0000     -10.754875      -292.6550
   7   1.0000     -10.740779      -292.2715
   8   1.0000     -10.734637      -292.1043
   9   1.0000     -10.705194      -291.3031
  10   1.0000     -10.688344      -290.8446
  11   1.0000     -10.673268      -290.4344
  12   1.0000     -10.664874      -290.2060
  13   1.0000     -10.627235      -289.1818
  14   1.0000      -1.282095       -34.8876
  15   1.0000      -1.263553       -34.3830
  16   1.0000      -1.244027       -33.8517
  17   1.0000      -1.147035       -31.2124
  18   1.0000      -1.142327       -31.0843
  19   1.0000      -1.062300       -28.9066
  20   1.0000      -0.999565       -27.1995
  21   1.0000      -0.953856       -25.9557
  22   1.0000      -0.922422       -25.1004
  23   1.0000      -0.901987       -24.5443
  24   1.0000      -0.858971       -23.3738
  25   1.0000      -0.838014       -22.8035
  26   1.0000      -0.827467       -22.5165
  27   1.0000      -0.782557       -21.2945
  28   1.0000      -0.768041       -20.8995
  29   1.0000      -0.747689       -20.3457
  30   1.0000      -0.728101       -19.8126
  31   1.0000      -0.710489       -19.3334
  32   1.0000      -0.678041       -18.4504
  33   1.0000      -0.668968       -18.2036
  34   1.0000      -0.653738       -17.7891
  35   1.0000      -0.649648       -17.6778
  36   1.0000      -0.638529       -17.3752
  37   1.0000      -0.630836       -17.1659
  38   1.0000      -0.619408       -16.8549
  39   1.0000      -0.612392       -16.6640
  40   1.0000      -0.599333       -16.3087
  41   1.0000      -0.587715       -15.9925
  42   1.0000      -0.578251       -15.7350
  43   1.0000      -0.569013       -15.4836
  44   1.0000      -0.560061       -15.2400
  45   1.0000      -0.555801       -15.1241
  46   1.0000      -0.553155       -15.0521
  47   1.0000      -0.544197       -14.8083
  48   1.0000      -0.541374       -14.7315
  49   1.0000      -0.512467       -13.9449
  50   1.0000      -0.451441       -12.2843
  51   1.0000      -0.435926       -11.8621
  52   1.0000      -0.430226       -11.7070
  53   1.0000      -0.415460       -11.3052
  54   0.0000      -0.330816        -9.0020
  55   0.0000      -0.118903        -3.2355
  56   0.0000      -0.074680        -2.0321
  57   0.0000      -0.072029        -1.9600
  58   0.0000      -0.059669        -1.6237

MULLIKEN ATOMIC CHARGES AND SPIN POPULATIONS
--------------------------------------------
   0 N :   -0.397556    0.043680
   1 C :   -0.102288    0.019102
   2 C :    0.353662   -0.002053
   3 O :   -0.400011   -0.000485
   4 C :   -0.325331    0.036724
   5 C :   -0.341124    0.040738
   6 C :   -0.254177    0.175843
   7 C :   -0.171044    0.019688
   8 N :   -0.243753    0.675485
   9 H :    0.321156   -0.024816
  10 H :    0.282416   -0.001770
  11 C :    0.386007   -0.008878
  12 N :   -0.349071    0.007296
  13 H :    0.258479   -0.000266
  14 O :   -0.385864    0.016741
  15 H :    0.319682   -0.024913
  16 C :   -0.309916   -0.000283
  17 H :    0.170648    0.000578
  18 H :    0.154269    0.000344
  19 H :    0.179571    0.000060
  20 C :   -0.455210   -0.000018
  21 H :    0.169165   -0.000078
  22 H :    0.179536   -0.000172
  23 H :    0.138770   -0.000081
  24 H :    0.215023    0.009791
  25 H :    0.181687   -0.001430
  26 H :    0.223001    0.000098
  27 H :    0.186190   -0.002166
  28 H :    0.189019   -0.002527
  29 H :    0.193507   -0.004007
  30 H :    0.203809   -0.005637
  31 H :    0.215211    0.018110
  32 H :    0.214534    0.015304
Sum of atomic charges         :    1.0000000

LOEWDIN ATOMIC CHARGES AND SPIN POPULATIONS
-------------------------------------------
   0 N :    0.150070    0.032711
   1 C :   -0.242596    0.025106
   2 C :   -0.451739    0.000182
   3 O :    0.068718   -0.000389
   4 C :   -0.212495    0.035280
   5 C :   -0.248789    0.034510
   6 C :   -0.183714    0.156781
   7 C :   -0.255216    0.115000
   8 N :    0.191782    0.548554
   9 H :    0.202847    0.000578
  10 H :    0.200256    0.000098
  11 C :   -0.469231   -0.000895
  12 N :    0.108469    0.005667
  13 H :    0.192164    0.000013
  14 O :    0.076822    0.013730
  15 H :    0.202275    0.000600
  16 C :   -0.288936    0.000629
  17 H :    0.124291    0.000352
  18 H :    0.120820    0.000229
  19 H :    0.133687    0.000054
  20 C :   -0.253636   -0.000417
  21 H :    0.142350   -0.000057
  22 H :    0.149346   -0.000124
  23 H :    0.127134   -0.000054
  24 H :    0.173549    0.007139
  25 H :    0.146687   -0.000316
  26 H :    0.160060    0.000785
  27 H :    0.153353   -0.000345
  28 H :    0.153240   -0.000123
  29 H :    0.149783    0.000053
  30 H :    0.151092   -0.000775
  31 H :    0.164016    0.013426
  32 H :    0.163545    0.012017

  Mayer bond orders larger than 0.100000
B(  0-N ,  1-C ) :   0.9686 B(  0-N , 10-H ) :   0.8767 B(  0-N , 11-C ) :   1.1617
B(  1-C ,  2-C ) :   0.9281 B(  1-C ,  4-C ) :   0.8448 B(  1-C , 24-H ) :   0.9803
B(  2-C ,  3-O ) :   1.8863 B(  2-C , 12-N ) :   1.2432 B(  4-C ,  5-C ) :   0.8222
B(  4-C , 25-H ) :   0.9709 B(  4-C , 26-H ) :   0.9709 B(  5-C ,  6-C ) :   0.8579
B(  5-C , 27-H ) :   0.9681 B(  5-C , 28-H ) :   0.9808 B(  6-C ,  7-C ) :   0.6985
B(  6-C , 29-H ) :   0.9584 B(  6-C , 30-H ) :   0.9741 B(  7-C ,  8-N ) :   1.0963
B(  7-C , 31-H ) :   0.9563 B(  7-C , 32-H ) :   0.9590 B(  8-N ,  9-H ) :   0.8768
B(  8-N , 15-H ) :   0.8772 B( 11-C , 14-O ) :   1.9044 B( 11-C , 20-C ) :   0.9236
B( 12-N , 13-H ) :   0.9123 B( 12-N , 16-C ) :   0.8913 B( 16-C , 17-H ) :   0.9677
B( 16-C , 18-H ) :   0.9632 B( 16-C , 19-H ) :   0.9604 B( 20-C , 21-H ) :   0.9653
B( 20-C , 22-H ) :   0.9406 B( 20-C , 23-H ) :   0.9841

FINAL SINGLE POINT ENERGY      -668.797022515164

DIPOLE MOMENT
-------------
                                X             Y             Z
Electronic contribution:     -2.15486      -3.74390      -0.91974
Nuclear contribution   :      4.25976       9.02301       0.19818
                        -----------------------------------------
Total Dipole Moment    :      2.10489       5.27912      -0.72156
                        -----------------------------------------
Magnitude (a.u.)       :      5.72890
Magnitude (Debye)      :     14.56171

VIBRATIONAL FREQUENCIES
-----------------------

Scaling factor for frequencies =  1.000000000  (already applied!)

   0:         0.00 cm**-1
   1:         0.00 cm**-1
   2:         0.00 cm**-1
   3:         0.00 cm**-1
   4:         0.00 cm**-1
   5:         0.00 cm**-1
   6:        31.01 cm**-1
   7:        41.99 cm**-1
   8:        63.02 cm**-1
   9:        82.52 cm**-1
  10:        87.31 cm**-1
  11:        89.37 cm**-1
  12:        96.25 cm**-1
  13:       108.02 cm**-1
  14:       121.07 cm**-1
  15:       151.13 cm**-1
  16:       154.17 cm**-1
  17:       183.50 cm**-1
  18:       209.80 cm**-1
  19:       253.33 cm**-1
  20:       290.45 cm**-1
  21:       310.03 cm**-1
  22:       353.92 cm**-1
  23:       359.96 cm**-1
  24:       367.61 cm**-1
  25:       381.55 cm**-1
  26:       466.95 cm**-1
  27:       511.10 cm**-1
  28:       548.57 cm**-1
  29:       569.05 cm**-1
  30:       652.42 cm**-1
  31:       655.90 cm**-1
  32:       661.69 cm**-1
  33:       700.66 cm**-1
  34:       713.61 cm**-1
  35:       756.26 cm**-1
  36:       795.90 cm**-1
  37:       824.39 cm**-1
  38:       886.96 cm**-1
  39:       889.19 cm**-1
  40:       934.83 cm**-1
  41:       994.41 cm**-1
  42:       999.57 cm**-1
  43:      1017.03 cm**-1
  44:      1031.78 cm**-1
  45:      1043.73 cm**-1
  46:      1062.35 cm**-1
  47:      1073.00 cm**-1
  48:      1122.12 cm**-1
  49:      1140.63 cm**-1
  50:      1156.42 cm**-1
  51:      1166.54 cm**-1
  52:      1186.05 cm**-1
  53:      1190.26 cm**-1
  54:      1232.50 cm**-1
  55:      1250.75 cm**-1
  56:      1252.88 cm**-1
  57:      1261.76 cm**-1
  58:      1279.01 cm**-1
  59:      1292.08 cm**-1
  60:      1311.19 cm**-1
  61:      1342.45 cm**-1
  62:      1351.17 cm**-1
  63:      1369.07 cm**-1
  64:      1383.10 cm**-1
  65:      1407.52 cm**-1
  66:      1455.08 cm**-1
  67:      1471.27 cm**-1
  68:      1483.16 cm**-1
  69:      1484.75 cm**-1
  70:      1489.61 cm**-1
  71:      1494.83 cm**-1
  72:      1498.63 cm**-1
  73:      1502.30 cm**-1
  74:      1509.40 cm**-1
  75:      1527.44 cm**-1
  76:      1590.51 cm**-1
  77:      1654.78 cm**-1
  78:      1781.14 cm**-1
  79:      1792.73 cm**-1
  80:      3066.44 cm**-1
  81:      3081.78 cm**-1
  82:      3087.09 cm**-1
  83:      3088.87 cm**-1
  84:      3092.27 cm**-1
  85:      3105.29 cm**-1
  86:      3113.48 cm**-1
  87:      3132.11 cm**-1
  88:      3149.51 cm**-1
  89:      3161.67 cm**-1
  90:      3167.54 cm**-1
  91:      3175.48 cm**-1
  92:      3192.85 cm**-1
  93:      3197.37 cm**-1
  94:      3200.09 cm**-1
  95:      3508.72 cm**-1
  96:      3603.01 cm**-1
  97:      3638.58 cm**-1
  98:      3643.86 cm**-1

IR SPECTRUM
-----------

 Mode   freq       eps      Int      T**2         TX        TY        TZ
       cm**-1   L/(mol*cm) km/mol    a.u.
----------------------------------------------------------------------------
  6:     31.01   0.001157    5.84  0.011637  ( 0.081150  0.052786  0.047600)
  7:     41.99   0.000160    0.81  0.001189  (-0.029638 -0.008606  0.015375)
  8:     63.02   0.000606    3.06  0.003002  ( 0.039081 -0.004911 -0.038092)
  9:     82.52   0.000655    3.31  0.002476  (-0.002597 -0.048860  0.009076)
 10:     87.31   0.002222   11.23  0.007943  ( 0.006720  0.083530 -0.030345)
 11:     89.37   0.000394    1.99  0.001375  ( 0.008125 -0.035048  0.008969)
 12:     96.25   0.000962    4.86  0.003120  ( 0.010822 -0.038227  0.039259)
 13:    108.02   0.000242    1.22  0.000698  (-0.012836  0.010419 -0.020615)
 14:    121.07   0.001474    7.45  0.003798  (-0.035214 -0.030387 -0.040430)
 15:    151.13   0.000035    0.18  0.000072  (-0.003991  0.000720  0.007458)
 16:    154.17   0.000820    4.14  0.001659  (-0.027521  0.010597 -0.028095)
 17:    183.50   0.002444   12.35  0.004157  (-0.032698 -0.055536 -0.001836)
 18:    209.80   0.000214    1.08  0.000318  (-0.016075  0.004028 -0.006573)
 19:    253.33   0.000560    2.83  0.000689  ( 0.020144 -0.003854  0.016395)
 20:    290.45   0.001108    5.60  0.001191  ( 0.027671 -0.017120  0.011492)
 21:    310.03   0.002846   14.38  0.002864  ( 0.026928  0.044384 -0.013004)
 22:    353.92   0.001279    6.46  0.001128  (-0.019868 -0.026481 -0.005640)
 23:    359.96   0.000160    0.81  0.000139  ( 0.000060  0.006648  0.009716)
 24:    367.61   0.000670    3.39  0.000569  (-0.017112  0.010926  0.012515)
 25:    381.55   0.004129   20.87  0.003377  ( 0.029062 -0.028905  0.041197)
 26:    466.95   0.001746    8.82  0.001167  (-0.032494  0.000231  0.010536)
 27:    511.10   0.004767   24.09  0.002910  (-0.023694 -0.041295  0.025371)
 28:    548.57   0.002813   14.22  0.001600  (-0.022233 -0.033244  0.001028)
 29:    569.05   0.016732   84.56  0.009176  (-0.068001 -0.067072 -0.007285)
 30:    652.42   0.054191  273.86  0.025921  ( 0.019515 -0.153443 -0.044668)
 31:    655.90   0.000396    2.00  0.000188  (-0.006193  0.005165 -0.011107)
 32:    661.69   0.002008   10.15  0.000947  (-0.022502 -0.014461 -0.015217)
 33:    700.66   0.048243  243.80  0.021486  (-0.030024 -0.140700 -0.028079)
 34:    713.61   0.004274   21.60  0.001869  ( 0.017136  0.038090  0.011156)
 35:    756.26   0.001459    7.37  0.000602  (-0.017674 -0.015586 -0.006846)
 36:    795.90   0.017638   89.14  0.006916  (-0.013948 -0.080999  0.012659)
 37:    824.39   0.009710   49.07  0.003676  (-0.009931 -0.058027  0.014483)
 38:    886.96   0.001770    8.95  0.000623  (-0.009350  0.011211 -0.020242)
 39:    889.19   0.004606   23.28  0.001617  ( 0.018977  0.035006  0.005569)
 40:    934.83   0.003526   17.82  0.001177  ( 0.013950 -0.031341  0.000490)
 41:    994.41   0.001648    8.33  0.000517  ( 0.009755  0.019748  0.005664)
 42:    999.57   0.005278   26.67  0.001648  (-0.004701 -0.040270 -0.001978)
 43:   1017.03   0.001957    9.89  0.000600  (-0.007430  0.002239 -0.023240)
 44:   1031.78   0.003469   17.53  0.001049  ( 0.016879  0.027607 -0.001473)
 45:   1043.73   0.024504  123.84  0.007327  (-0.036570 -0.077387 -0.000662)
 46:   1062.35   0.001067    5.39  0.000313  ( 0.006930  0.016039 -0.002853)
 47:   1073.00   0.001777    8.98  0.000517  (-0.021939 -0.005462  0.002410)
 48:   1122.12   0.033219  167.88  0.009238  ( 0.028650  0.090176 -0.016903)
 49:   1140.63   0.004108   20.76  0.001124  ( 0.022483  0.024549 -0.003985)
 50:   1156.42   0.029821  150.70  0.008047  ( 0.000693  0.088068 -0.017051)
 51:   1166.54   0.250253  1264.68  0.066946  ( 0.078531  0.245626 -0.021126)
 52:   1186.05   0.021813  110.23  0.005739  ( 0.037630  0.065699  0.002609)
 53:   1190.26   0.003592   18.15  0.000942  (-0.016802  0.021866 -0.013465)
 54:   1232.50   0.005233   26.45  0.001325  (-0.029320 -0.013121 -0.017125)
 55:   1250.75   0.006106   30.86  0.001524  (-0.021385 -0.023070 -0.023108)
 56:   1252.88   0.005454   27.56  0.001358  ( 0.029134  0.018304  0.013216)
 57:   1261.76   0.098635  498.46  0.024395  ( 0.049634  0.148064 -0.002889)
 58:   1279.01   0.002689   13.59  0.000656  (-0.017451 -0.006993 -0.017396)
 59:   1292.08   0.009633   48.68  0.002327  ( 0.017790  0.040849  0.018478)
 60:   1311.19   0.001282    6.48  0.000305  (-0.013628 -0.006710 -0.008624)
 61:   1342.45   0.003361   16.99  0.000781  ( 0.015358  0.022884  0.004669)
 62:   1351.17   0.000268    1.36  0.000062  (-0.002183 -0.007527 -0.000746)
 63:   1369.07   0.001343    6.79  0.000306  (-0.000477 -0.005635  0.016557)
 64:   1383.10   0.010430   52.71  0.002353  (-0.028239 -0.020272 -0.033835)
 65:   1407.52   0.020815  105.19  0.004615  (-0.050794 -0.039177 -0.022361)
 66:   1455.08   0.006227   31.47  0.001335  ( 0.014210 -0.033104 -0.006136)
 67:   1471.27   0.007564   38.23  0.001604  ( 0.016702  0.009622  0.035113)
 68:   1483.16   0.003558   17.98  0.000749  ( 0.010051  0.025435  0.000888)
 69:   1484.75   0.000661    3.34  0.000139  ( 0.002533  0.004818 -0.010451)
 70:   1489.61   0.008673   43.83  0.001817  ( 0.017536  0.030019  0.024662)
 71:   1494.83   0.032990  166.72  0.006887  (-0.034195 -0.075551  0.003138)
 72:   1498.63   0.006488   32.79  0.001351  ( 0.028073  0.006548  0.022803)
 73:   1502.30   0.012349   62.41  0.002565  ( 0.031798  0.031810 -0.023286)
 74:   1509.40   0.012851   64.95  0.002657  (-0.028872 -0.004861 -0.042423)
 75:   1527.44   0.130984  661.94  0.026761  ( 0.116155  0.098097  0.060379)
 76:   1590.51   0.050607  255.75  0.009929  ( 0.050488 -0.072463  0.046145)
 77:   1654.78   0.011299   57.10  0.002131  ( 0.014736  0.031835 -0.030002)
 78:   1781.14   0.079525  401.88  0.013933  ( 0.076281 -0.039242 -0.081082)
 79:   1792.73   0.015915   80.43  0.002770  ( 0.047638  0.019179  0.011534)
 80:   3066.44   0.008518   43.05  0.000867  (-0.013826 -0.025974 -0.001037)
 81:   3081.78   0.001287    6.50  0.000130  (-0.006150  0.003354 -0.009014)
 82:   3087.09   0.004348   21.97  0.000440  ( 0.010726 -0.010687  0.014502)
 83:   3088.87   0.000337    1.71  0.000034  ( 0.000387 -0.004287 -0.003945)
 84:   3092.27   0.001302    6.58  0.000131  (-0.010141  0.004646  0.002645)
 85:   3105.29   0.000909    4.59  0.000091  (-0.005064  0.003421  0.007347)
 86:   3113.48   0.000159    0.80  0.000016  (-0.001763 -0.003506  0.000749)
 87:   3132.11   0.000094    0.48  0.000009  (-0.000023  0.002168  0.002167)
 88:   3149.51   0.002946   14.89  0.000292  (-0.004394  0.016070 -0.003792)
 89:   3161.67   0.000962    4.86  0.000095  ( 0.007921  0.005613 -0.000839)
 90:   3167.54   0.000676    3.42  0.000067  (-0.006538 -0.002098  0.004408)
 91:   3175.48   0.000843    4.26  0.000083  (-0.006076  0.005643 -0.003759)
 92:   3192.85   0.000485    2.45  0.000047  (-0.001260  0.003315  0.005900)
 93:   3197.37   0.000037    0.18  0.000004  (-0.001372  0.001226 -0.000419)
 94:   3200.09   0.000398    2.01  0.000039  ( 0.005510  0.001278  0.002607)
 95:   3508.72   0.473827  2394.53  0.042142  ( 0.052715  0.192378 -0.048514)
 96:   3603.01   0.045537  230.13  0.003944  (-0.020891 -0.041916  0.041842)
 97:   3638.58   0.025102  126.85  0.002153  ( 0.042199 -0.001937  0.019193)
 98:   3643.86   0.013120   66.30  0.001124  (-0.021555  0.023880  0.009418)

--------------------------
THERMOCHEMISTRY AT 298.15K
--------------------------

Temperature         ... 298.15 K
Pressure            ... 1.00 atm
Total Mass          ... 201.27 AMU

Throughout the following assumptions are being made:
  (1) The electronic state is orbitally nondegenerate
      but the spin degeneracy is treated
  (2) There are no thermally accessible electronically excited states
  (3) Hindered rotations indicated by low frequency modes are not
      treated as such but are treated as vibrations and this may
      cause some error
  (4) All equations used are the standard statistical mechanics
      equations for an ideal gas
  (5) All vibrations are strictly harmonic

freq.      31.01  E(vib)   ...       0.55
freq.      41.99  E(vib)   ...       0.53
freq.      63.02  E(vib)   ...       0.51
freq.      82.52  E(vib)   ...       0.48
freq.      87.31  E(vib)   ...       0.48
freq.      89.37  E(vib)   ...       0.47
freq.      96.25  E(vib)   ...       0.47
freq.     108.02  E(vib)   ...       0.45
freq.     121.07  E(vib)   ...       0.44
freq.     151.13  E(vib)   ...       0.40
freq.     154.17  E(vib)   ...       0.40
freq.     183.50  E(vib)   ...       0.37
freq.     209.80  E(vib)   ...       0.34
freq.     253.33  E(vib)   ...       0.30
freq.     290.45  E(vib)   ...       0.27
freq.     310.03  E(vib)   ...       0.26
freq.     353.92  E(vib)   ...       0.22
freq.     359.96  E(vib)   ...       0.22
freq.     367.61  E(vib)   ...       0.21
freq.     381.55  E(vib)   ...       0.21
freq.     466.95  E(vib)   ...       0.16
freq.     511.10  E(vib)   ...       0.14
freq.     548.57  E(vib)   ...       0.12
freq.     569.05  E(vib)   ...       0.11
freq.     652.42  E(vib)   ...       0.08
freq.     655.90  E(vib)   ...       0.08
freq.     661.69  E(vib)   ...       0.08
freq.     700.66  E(vib)   ...       0.07
freq.     713.61  E(vib)   ...       0.07
freq.     756.26  E(vib)   ...       0.06
freq.     795.90  E(vib)   ...       0.05
freq.     824.39  E(vib)   ...       0.04
freq.     886.96  E(vib)   ...       0.04
freq.     889.19  E(vib)   ...       0.04
freq.     934.83  E(vib)   ...       0.03
freq.     994.41  E(vib)   ...       0.02
freq.     999.57  E(vib)   ...       0.02
freq.    1017.03  E(vib)   ...       0.02
freq.    1031.78  E(vib)   ...       0.02
freq.    1043.73  E(vib)   ...       0.02
freq.    1062.35  E(vib)   ...       0.02
freq.    1073.00  E(vib)   ...       0.02
freq.    1122.12  E(vib)   ...       0.01
freq.    1140.63  E(vib)   ...       0.01
freq.    1156.42  E(vib)   ...       0.01
freq.    1166.54  E(vib)   ...       0.01
freq.    1186.05  E(vib)   ...       0.01
freq.    1190.26  E(vib)   ...       0.01
freq.    1232.50  E(vib)   ...       0.01
freq.    1250.75  E(vib)   ...       0.01
freq.    1252.88  E(vib)   ...       0.01
freq.    1261.76  E(vib)   ...       0.01
freq.    1279.01  E(vib)   ...       0.01
freq.    1292.08  E(vib)   ...       0.01
freq.    1311.19  E(vib)   ...       0.01
freq.    1342.45  E(vib)   ...       0.01
freq.    1351.17  E(vib)   ...       0.01
freq.    1369.07  E(vib)   ...       0.01
freq.    1383.10  E(vib)   ...       0.01
freq.    1407.52  E(vib)   ...       0.00
freq.    1455.08  E(vib)   ...       0.00
freq.    1471.27  E(vib)   ...       0.00
freq.    1483.16  E(vib)   ...       0.00
freq.    1484.75  E(vib)   ...       0.00
freq.    1489.61  E(vib)   ...       0.00
freq.    1494.83  E(vib)   ...       0.00
freq.    1498.63  E(vib)   ...       0.00
freq.    1502.30  E(vib)   ...       0.00
freq.    1509.40  E(vib)   ...       0.00
freq.    1527.44  E(vib)   ...       0.00
freq.    1590.51  E(vib)   ...       0.00
freq.    1654.78  E(vib)   ...       0.00
freq.    1781.14  E(vib)   ...       0.00
freq.    1792.73  E(vib)   ...       0.00
freq.    3066.44  E(vib)   ...       0.00
freq.    3081.78  E(vib)   ...       0.00
freq.    3087.09  E(vib)   ...       0.00
freq.    3088.87  E(vib)   ...       0.00
freq.    3092.27  E(vib)   ...       0.00
freq.    3105.29  E(vib)   ...       0.00
freq.    3113.48  E(vib)   ...       0.00
freq.    3132.11  E(vib)   ...       0.00
freq.    3149.51  E(vib)   ...       0.00
freq.    3161.67  E(vib)   ...       0.00
freq.    3167.54  E(vib)   ...       0.00
freq.    3175.48  E(vib)   ...       0.00
freq.    3192.85  E(vib)   ...       0.00
freq.    3197.37  E(vib)   ...       0.00
freq.    3200.09  E(vib)   ...       0.00
freq.    3508.72  E(vib)   ...       0.00
freq.    3603.01  E(vib)   ...       0.00
freq.    3638.58  E(vib)   ...       0.00
freq.    3643.86  E(vib)   ...       0.00

------------
INNER ENERGY
------------

The inner energy is: U= E(el) + E(ZPE) + E(vib) + E(rot) + E(trans)
    E(el)   - is the total energy from the electronic structure calculation
              = E(kin-el) + E(nuc-el) + E(el-el) + E(nuc-nuc)
    E(ZPE)  - the the zero temperature vibrational energy from the frequency calculation
    E(vib)  - the the finite temperature correction to E(ZPE) due to population
              of excited vibrational states
    E(rot)  - is the rotational thermal energy
    E(trans)- is the translational thermal energy

Summary of contributions to the inner energy U:
Electronic energy                ...   -668.79702252 Eh
Zero point energy                ...      0.29015304 Eh     182.07 kcal/mol
Thermal vibrational correction   ...      0.01447469 Eh       9.08 kcal/mol
Thermal rotational correction    ...      0.00141627 Eh       0.89 kcal/mol
Thermal translational correction ...      0.00141627 Eh       0.89 kcal/mol
-----------------------------------------------------------------------
Total thermal energy                   -668.48956224 Eh

Summary of corrections to the electronic energy:
(perhaps to be used in another calculation)
Total thermal correction                  0.01730724 Eh      10.86 kcal/mol
Non-thermal (ZPE) correction              0.29015304 Eh     182.07 kcal/mol
-----------------------------------------------------------------------
Total correction                          0.30746028 Eh     192.93 kcal/mol

--------
ENTHALPY
--------

The enthalpy is H = U + kB*T
                kB is Boltzmann's constant
Total free energy                 ...   -668.48956224 Eh
Thermal Enthalpy correction       ...      0.00094421 Eh       0.59 kcal/mol
-----------------------------------------------------------------------
Total Enthalpy                    ...   -668.48861803 Eh

Note: Only C1 symmetry has been detected, increase convergence thresholds
      if your molecule has a higher symmetry. Symmetry factor of 1.0 is
      used for the rotational entropy correction.

Note: Rotational entropy computed according to Herzberg

Rotational constants in cm-1:     0.019685     0.014146     0.009386

                             ****ORCA TERMINATED NORMALLY****
TOTAL RUN TIME: 0 days 0 hours 41 minutes 7 seconds 411 msec
