                         Program Version 5.0.4 -  RELEASE  -
|  1> ! B3LYP EPR-II OPT
|  2> %pal nprocs 16 end
|  3> *XYZFile 1 2 model.xyz
|  4>
|  5>                          ****END OF INPUT****
 Total Charge           Charge          ....    1
 Multiplicity           Mult            ....    2
 Number of Electrons    NEL             ....  109
FINAL SINGLE POINT ENERGY      -668.590727414286
FINAL SINGLE POINT ENERGY      -668.593167215161
FINAL SINGLE POINT ENERGY      -668.593601248187
FINAL SINGLE POINT ENERGY      -668.593805135221
FINAL SINGLE POINT ENERGY      -668.593907610369
FINAL SINGLE POINT ENERGY      -668.593969832790
FINAL SINGLE POINT ENERGY      -668.594010917449
FINAL SINGLE POINT ENERGY      -668.594045344971
FINAL SINGLE POINT ENERGY      -668.594074190392
FINAL SINGLE POINT ENERGY      -668.594104586781
FINAL SINGLE POINT ENERGY      -668.594139286487
FINAL SINGLE POINT ENERGY      -668.594177544864
FINAL SINGLE POINT ENERGY      -668.594206222691
FINAL SINGLE POINT ENERGY      -668.594224789237
FINAL SINGLE POINT ENERGY      -668.594234234891
FINAL SINGLE POINT ENERGY      -668.594238083016
                    ***********************HURRAY********************

CARTESIAN COORDINATES (ANGSTROEM)
---------------------------------
  N     -7.877822    0.868081    0.069798
  C     -6.446808    0.881222    0.175807
  C     -6.112596    0.859714    1.684091
  O     -6.890456    1.371222    2.490157
  C     -5.761349    2.129137   -0.519886
  C     -6.182959    3.485647    0.052513
  C     -5.539998    4.616540   -0.778935
  C     -6.021734    6.023916   -0.243127
  N     -5.455340    7.100302   -0.996140
  H     -5.853674    7.359766   -1.890585
  H     -8.383843    1.137654    0.909474
  C     -8.538825    0.533321   -1.104459
  N     -4.925612    0.290700    2.011777
  H     -4.413769   -0.195659    1.288829
  O     -7.893841    0.278941   -2.117906
  H     -4.489297    7.368281   -0.850836
  C     -4.478392    0.132906    3.398599
  H     -4.696129   -0.873968    3.769004
  H     -3.402475    0.313082    3.456881
  H     -5.008880    0.857811    4.015584
  C    -10.053034    0.484525   -1.034380
  H    -10.463890    0.932778   -1.940942
  H    -10.360476   -0.566264   -1.015388
  H    -10.460539    0.984245   -0.152376
  H     -6.055080    0.008472   -0.360192
  H     -4.677062    1.996200   -0.440467
  H     -6.027440    2.045483   -1.579102
  H     -5.882787    3.584280    1.100923
  H     -7.274453    3.578607    0.021471
  H     -4.447681    4.577103   -0.713422
  H     -5.817493    4.528532   -1.834544
  H     -5.721622    6.120131    0.804710
  H     -7.111711    6.075265   -0.311696

 Multiplicity           Mult            ....    2
 Number of Electrons    NEL             ....  109
 Basis Dimension        Dim             ....  371

ORBITAL ENERGIES
----------------
                 SPIN UP ORBITALS
  NO   OCC          E(Eh)            E(eV)
   0   1.0000     -19.249622      -523.8088
   1   1.0000     -19.249083      -523.7942
   2   1.0000     -14.540598      -395.6698
   3   1.0000     -14.509754      -394.8305
   4   1.0000     -14.497976      -394.5100
   5   1.0000     -10.429216      -283.7934
   6   1.0000     -10.425912      -283.7035
   7   1.0000     -10.383572      -282.5514
   8   1.0000     -10.381030      -282.4822
   9   1.0000     -10.344126      -281.4780
  10   1.0000     -10.333693      -281.1941
  11   1.0000     -10.328218      -281.0451
  12   1.0000     -10.327941      -281.0376
  13   1.0000     -10.300648      -280.2949
  14   1.0000      -1.176314       -32.0091
  15   1.0000      -1.167065       -31.7575
  16   1.0000      -1.087736       -29.5988
  17   1.0000      -1.065695       -28.9990
  18   1.0000      -1.054491       -28.6942
  19   1.0000      -0.945862       -25.7382
  20   1.0000      -0.903565       -24.5872
  21   1.0000      -0.857796       -23.3418
  22   1.0000      -0.842715       -22.9314
  23   1.0000      -0.809787       -22.0354
  24   1.0000      -0.771533       -20.9945
  25   1.0000      -0.741314       -20.1722
  26   1.0000      -0.719772       -19.5860
  27   1.0000      -0.707311       -19.2469
  28   1.0000      -0.706295       -19.2193
  29   1.0000      -0.666004       -18.1229
  30   1.0000      -0.634684       -17.2706
  31   1.0000      -0.615592       -16.7511
  32   1.0000      -0.611619       -16.6430
  33   1.0000      -0.601975       -16.3806
  34   1.0000      -0.594815       -16.1857
  35   1.0000      -0.580438       -15.7945
  36   1.0000      -0.571163       -15.5421
  37   1.0000      -0.564991       -15.3742
  38   1.0000      -0.556319       -15.1382
  39   1.0000      -0.548265       -14.9190
  40   1.0000      -0.533710       -14.5230
  41   1.0000      -0.527318       -14.3491
  42   1.0000      -0.512944       -13.9579
  43   1.0000      -0.510204       -13.8834
  44   1.0000      -0.508480       -13.8364
  45   1.0000      -0.504700       -13.7336
  46   1.0000      -0.494250       -13.4492
  47   1.0000      -0.489304       -13.3146
  48   1.0000      -0.478583       -13.0229
  49   1.0000      -0.472897       -12.8682
  50   1.0000      -0.434001       -11.8098
  51   1.0000      -0.409066       -11.1312
  52   1.0000      -0.397530       -10.8173
  53   1.0000      -0.386592       -10.5197
  54   1.0000      -0.385619       -10.4932
  55   0.0000      -0.121596        -3.3088
  56   0.0000      -0.115034        -3.1302
  57   0.0000      -0.105514        -2.8712
  58   0.0000      -0.098911        -2.6915
  59   0.0000      -0.089894        -2.4461

                 SPIN DOWN ORBITALS
  NO   OCC          E(Eh)            E(eV)
   0   1.0000     -19.248593      -523.7809
   1   1.0000     -19.246375      -523.7205
   2   1.0000     -14.531085      -395.4109
   3   1.0000     -14.505629      -394.7182
   4   1.0000     -14.496950      -394.4821
   5   1.0000     -10.429311      -283.7960
   6   1.0000     -10.426726      -283.7257
   7   1.0000     -10.383284      -282.5435
   8   1.0000     -10.380488      -282.4674
   9   1.0000     -10.342445      -281.4322
  10   1.0000     -10.332747      -281.1684
  11   1.0000     -10.328205      -281.0448
  12   1.0000     -10.327550      -281.0269
  13   1.0000     -10.300617      -280.2940
  14   1.0000      -1.173192       -31.9242
  15   1.0000      -1.163049       -31.6482
  16   1.0000      -1.068360       -29.0716
  17   1.0000      -1.057452       -28.7747
  18   1.0000      -1.052179       -28.6313
  19   1.0000      -0.941387       -25.6164
  20   1.0000      -0.898558       -24.4510
  21   1.0000      -0.854384       -23.2490
  22   1.0000      -0.840919       -22.8826
  23   1.0000      -0.806593       -21.9485
  24   1.0000      -0.767940       -20.8967
  25   1.0000      -0.738471       -20.0948
  26   1.0000      -0.718472       -19.5506
  27   1.0000      -0.704748       -19.1772
  28   1.0000      -0.700382       -19.0584
  29   1.0000      -0.664353       -18.0780
  30   1.0000      -0.629426       -17.1276
  31   1.0000      -0.613173       -16.6853
  32   1.0000      -0.607788       -16.5388
  33   1.0000      -0.595267       -16.1980
  34   1.0000      -0.592832       -16.1318
  35   1.0000      -0.578000       -15.7282
  36   1.0000      -0.568421       -15.4675
  37   1.0000      -0.554989       -15.1020
  38   1.0000      -0.552367       -15.0307
  39   1.0000      -0.544446       -14.8151
  40   1.0000      -0.531636       -14.4665
  41   1.0000      -0.520854       -14.1732
  42   1.0000      -0.512046       -13.9335
  43   1.0000      -0.509609       -13.8672
  44   1.0000      -0.504168       -13.7191
  45   1.0000      -0.503686       -13.7060
  46   1.0000      -0.488175       -13.2839
  47   1.0000      -0.486409       -13.2359
  48   1.0000      -0.476198       -12.9580
  49   1.0000      -0.463605       -12.6153
  50   1.0000      -0.397762       -10.8237
  51   1.0000      -0.387940       -10.5564
  52   1.0000      -0.381808       -10.3895
  53   1.0000      -0.367305        -9.9949
  54   0.0000      -0.338408        -9.2085
  55   0.0000      -0.118983        -3.2377
  56   0.0000      -0.112773        -3.0687
  57   0.0000      -0.101237        -2.7548
  58   0.0000      -0.097605        -2.6560

MULLIKEN ATOMIC CHARGES AND SPIN POPULATIONS
--------------------------------------------
   0 N :   -0.061290    0.208370
   1 C :   -0.134278    0.018956
   2 C :    0.090867   -0.007157
   3 O :   -0.289450    0.039808
   4 C :   -0.266302    0.052922
   5 C :   -0.225075    0.017852
   6 C :   -0.292128    0.084929
   7 C :   -0.268008    0.004758
   8 N :   -0.290995    0.477420
   9 H :    0.291897   -0.015521
  10 H :    0.274970   -0.007875
  11 C :    0.168895   -0.045821
  12 N :   -0.092375    0.045452
  13 H :    0.247570   -0.001648
  14 O :   -0.240840    0.106748
  15 H :    0.290208   -0.015558
  16 C :   -0.434961    0.001071
  17 H :    0.191482    0.002844
  18 H :    0.172670    0.002390
  19 H :    0.202093    0.000202
  20 C :   -0.522491    0.002269
  21 H :    0.201632   -0.000738
  22 H :    0.207575   -0.001174
  23 H :    0.158660   -0.000388
  24 H :    0.183639    0.013535
  25 H :    0.163255   -0.001253
  26 H :    0.195771    0.002592
  27 H :    0.173059    0.000750
  28 H :    0.156757   -0.000751
  29 H :    0.174912   -0.001150
  30 H :    0.174951   -0.002775
  31 H :    0.199703    0.010605
  32 H :    0.197626    0.008335
Sum of atomic charges         :    1.0000000

LOEWDIN ATOMIC CHARGES AND SPIN POPULATIONS
-------------------------------------------
   0 N :    0.132306    0.174309
   1 C :   -0.030915    0.035912
   2 C :   -0.096544    0.001032
   3 O :   -0.159374    0.036230
   4 C :   -0.026124    0.045340
   5 C :   -0.056176    0.018309
   6 C :   -0.045049    0.078171
   7 C :   -0.013264    0.034837
   8 N :    0.175006    0.413813
   9 H :    0.091283    0.004362
  10 H :    0.105957    0.002016
  11 C :   -0.079870   -0.024646
  12 N :    0.072480    0.039357
  13 H :    0.089263    0.000283
  14 O :   -0.118865    0.099989
  15 H :    0.090848    0.004305
  16 C :    0.033157    0.002411
  17 H :    0.044396    0.002358
  18 H :    0.041348    0.002105
  19 H :    0.056332    0.000422
  20 C :   -0.020936    0.000320
  21 H :    0.063675   -0.000586
  22 H :    0.069061   -0.001181
  23 H :    0.042077   -0.000329
  24 H :    0.077338    0.010274
  25 H :    0.055089    0.000145
  26 H :    0.066466    0.003228
  27 H :    0.057366    0.000745
  28 H :    0.053641    0.000380
  29 H :    0.052303    0.000083
  30 H :    0.053018   -0.000512
  31 H :    0.063210    0.009391
  32 H :    0.061499    0.007126

  Mayer bond orders larger than 0.100000
B(  0-N ,  1-C ) :   1.0636 B(  0-N ,  8-N ) :   0.1236 B(  0-N , 10-H ) :   0.8734
B(  0-N , 11-C ) :   1.1415 B(  1-C ,  2-C ) :   0.8867 B(  1-C ,  4-C ) :   0.8881
B(  1-C , 14-O ) :   0.1222 B(  1-C , 24-H ) :   0.9494 B(  2-C ,  3-O ) :   1.8587
B(  2-C , 12-N ) :   1.2238 B(  4-C ,  5-C ) :   0.9598 B(  4-C , 25-H ) :   0.9619
B(  4-C , 26-H ) :   0.9461 B(  5-C ,  6-C ) :   0.9446 B(  5-C , 27-H ) :   0.9563
B(  5-C , 28-H ) :   0.9689 B(  6-C ,  7-C ) :   0.8837 B(  6-C , 29-H ) :   0.9623
B(  6-C , 30-H ) :   0.9622 B(  7-C ,  8-N ) :   1.0472 B(  7-C , 31-H ) :   0.9400
B(  7-C , 32-H ) :   0.9440 B(  8-N ,  9-H ) :   0.9097 B(  8-N , 15-H ) :   0.9104
B( 11-C , 14-O ) :   1.9005 B( 11-C , 20-C ) :   0.9205 B( 12-N , 13-H ) :   0.9211
B( 12-N , 16-C ) :   0.9590 B( 16-C , 17-H ) :   0.9475 B( 16-C , 18-H ) :   0.9546
B( 16-C , 19-H ) :   0.9439 B( 20-C , 21-H ) :   0.9514 B( 20-C , 22-H ) :   0.9386
B( 20-C , 23-H ) :   0.9688

FINAL SINGLE POINT ENERGY      -668.594239037586

DIPOLE MOMENT
-------------
                                X             Y             Z
Electronic contribution:     -2.65166      -6.44288      -0.41706
Nuclear contribution   :      4.15447       9.32432       0.02409
                        -----------------------------------------
Total Dipole Moment    :      1.50282       2.88144      -0.39296
                        -----------------------------------------
Magnitude (a.u.)       :      3.27346
Magnitude (Debye)      :      8.32048

Rotational constants in cm-1:     0.019675     0.013066     0.008909
Rotational constants in MHz :   589.850756   391.695944   267.084690

                             ****ORCA TERMINATED NORMALLY****
TOTAL RUN TIME: 0 days 0 hours 32 minutes 5 seconds 723 msec
