                         Program Version 5.0.4 -  RELEASE  -
|  1> ! B3LYP EPR-II AUTOAUX
|  2> %pal nprocs 16 end
|  3> *XYZFile 1 2 opt.xyz
|  4> %EPRNMR
|  5>         GTENSOR   TRUE
|  6>         NUCLEI    = 9,28,29,30,31,32,33 {SHIFT, AISO, ADIP, AORB}
|  7>         ORI       GIAO
|  8> END
|  9>
| 10>                          ****END OF INPUT****

CARTESIAN COORDINATES (ANGSTROEM)
---------------------------------
  N     -7.870461    0.826523    0.035052
  C     -6.440480    0.872750    0.145971
  C     -6.111651    0.865289    1.655453
  O     -6.905426    1.358932    2.457027
  C     -5.781514    2.132514   -0.553268
  C     -6.226610    3.481290    0.019605
  C     -5.628220    4.622707   -0.830104
  C     -6.127031    6.021563   -0.286418
  N     -5.610467    7.107757   -1.060227
  H     -8.385453    1.086060    0.872436
  C     -8.519696    0.482071   -1.142068
  N     -4.911010    0.329432    1.989516
  H     -4.383485   -0.145234    1.270063
  O     -7.865326    0.241720   -2.153451
  C     -4.465122    0.187441    3.378416
  H     -4.664807   -0.821444    3.753619
  H     -3.392946    0.388047    3.438346
  H     -5.011052    0.905334    3.990134
  C    -10.033661    0.416365   -1.087282
  H    -10.336101   -0.621494   -1.256461
  H    -10.449429    0.757612   -0.136590
  H    -10.442594    1.013358   -1.905991
  H     -6.027396    0.006706   -0.385068
  H     -4.694564    2.020611   -0.477880
  H     -6.049628    2.041746   -1.611447
  H     -5.908672    3.592953    1.061501
  H     -7.320364    3.548049    0.009436
  H     -4.533989    4.607607   -0.791478
  H     -5.929832    4.525580   -1.878288
  H     -5.797780    6.130039    0.751352
  H     -7.219604    6.045479   -0.322718
  H     -6.036606    7.347067   -1.947520
  H     -4.648507    7.402578   -0.941929

 Total Charge           Charge          ....    1
 Multiplicity           Mult            ....    2
 Number of Electrons    NEL             ....  109
 Basis Dimension        Dim             ....  371

ORBITAL ENERGIES
----------------
                 SPIN UP ORBITALS
  NO   OCC          E(Eh)            E(eV)
   0   1.0000     -19.249678      -523.8104
   1   1.0000     -19.249073      -523.7939
   2   1.0000     -14.540756      -395.6741
   3   1.0000     -14.510005      -394.8373
   4   1.0000     -14.498113      -394.5137
   5   1.0000     -10.429257      -283.7945
   6   1.0000     -10.425998      -283.7058
   7   1.0000     -10.383711      -282.5551
   8   1.0000     -10.381118      -282.4846
   9   1.0000     -10.344319      -281.4832
  10   1.0000     -10.333813      -281.1974
  11   1.0000     -10.328355      -281.0488
  12   1.0000     -10.328133      -281.0428
  13   1.0000     -10.300832      -280.2999
  14   1.0000      -1.176331       -32.0096
  15   1.0000      -1.167030       -31.7565
  16   1.0000      -1.087911       -29.6036
  17   1.0000      -1.065802       -29.0019
  18   1.0000      -1.054534       -28.6953
  19   1.0000      -0.946008       -25.7422
  20   1.0000      -0.903643       -24.5894
  21   1.0000      -0.857844       -23.3431
  22   1.0000      -0.842784       -22.9333
  23   1.0000      -0.809927       -22.0392
  24   1.0000      -0.771756       -21.0005
  25   1.0000      -0.741486       -20.1769
  26   1.0000      -0.719876       -19.5888
  27   1.0000      -0.707302       -19.2467
  28   1.0000      -0.706351       -19.2208
  29   1.0000      -0.666115       -18.1259
  30   1.0000      -0.634810       -17.2740
  31   1.0000      -0.615935       -16.7604
  32   1.0000      -0.611633       -16.6434
  33   1.0000      -0.601959       -16.3801
  34   1.0000      -0.594953       -16.1895
  35   1.0000      -0.580552       -15.7976
  36   1.0000      -0.571116       -15.5408
  37   1.0000      -0.565053       -15.3759
  38   1.0000      -0.556250       -15.1363
  39   1.0000      -0.548493       -14.9253
  40   1.0000      -0.533691       -14.5225
  41   1.0000      -0.527365       -14.3503
  42   1.0000      -0.513166       -13.9640
  43   1.0000      -0.510305       -13.8861
  44   1.0000      -0.508694       -13.8423
  45   1.0000      -0.504689       -13.7333
  46   1.0000      -0.494170       -13.4470
  47   1.0000      -0.489449       -13.3186
  48   1.0000      -0.478647       -13.0246
  49   1.0000      -0.472727       -12.8636
  50   1.0000      -0.434028       -11.8105
  51   1.0000      -0.409057       -11.1310
  52   1.0000      -0.397579       -10.8187
  53   1.0000      -0.386722       -10.5232
  54   1.0000      -0.385661       -10.4944
  55   0.0000      -0.121693        -3.3114
  56   0.0000      -0.115289        -3.1372
  57   0.0000      -0.105609        -2.8738
  58   0.0000      -0.099118        -2.6971
  59   0.0000      -0.090066        -2.4508

                 SPIN DOWN ORBITALS
  NO   OCC          E(Eh)            E(eV)
   0   1.0000     -19.248659      -523.7826
   1   1.0000     -19.246326      -523.7192
   2   1.0000     -14.531246      -395.4153
   3   1.0000     -14.505899      -394.7256
   4   1.0000     -14.497075      -394.4855
   5   1.0000     -10.429358      -283.7973
   6   1.0000     -10.426819      -283.7282
   7   1.0000     -10.383422      -282.5473
   8   1.0000     -10.380580      -282.4699
   9   1.0000     -10.342632      -281.4373
  10   1.0000     -10.332868      -281.1716
  11   1.0000     -10.328344      -281.0485
  12   1.0000     -10.327745      -281.0322
  13   1.0000     -10.300802      -280.2991
  14   1.0000      -1.173214       -31.9248
  15   1.0000      -1.162968       -31.6460
  16   1.0000      -1.068552       -29.0768
  17   1.0000      -1.057576       -28.7781
  18   1.0000      -1.052208       -28.6320
  19   1.0000      -0.941535       -25.6205
  20   1.0000      -0.898635       -24.4531
  21   1.0000      -0.854438       -23.2504
  22   1.0000      -0.840990       -22.8845
  23   1.0000      -0.806745       -21.9527
  24   1.0000      -0.768165       -20.9028
  25   1.0000      -0.738639       -20.0994
  26   1.0000      -0.718575       -19.5534
  27   1.0000      -0.704737       -19.1769
  28   1.0000      -0.700449       -19.0602
  29   1.0000      -0.664475       -18.0813
  30   1.0000      -0.629567       -17.1314
  31   1.0000      -0.613400       -16.6915
  32   1.0000      -0.607902       -16.5418
  33   1.0000      -0.595254       -16.1977
  34   1.0000      -0.592966       -16.1354
  35   1.0000      -0.578135       -15.7319
  36   1.0000      -0.568325       -15.4649
  37   1.0000      -0.555050       -15.1037
  38   1.0000      -0.552288       -15.0285
  39   1.0000      -0.544676       -14.8214
  40   1.0000      -0.531573       -14.4648
  41   1.0000      -0.520832       -14.1726
  42   1.0000      -0.512299       -13.9404
  43   1.0000      -0.509702       -13.8697
  44   1.0000      -0.504459       -13.7270
  45   1.0000      -0.503649       -13.7050
  46   1.0000      -0.488073       -13.2811
  47   1.0000      -0.486543       -13.2395
  48   1.0000      -0.476289       -12.9605
  49   1.0000      -0.463378       -12.6092
  50   1.0000      -0.397795       -10.8246
  51   1.0000      -0.387979       -10.5574
  52   1.0000      -0.381837       -10.3903
  53   1.0000      -0.367407        -9.9977
  54   0.0000      -0.338494        -9.2109
  55   0.0000      -0.119082        -3.2404
  56   0.0000      -0.113056        -3.0764
  57   0.0000      -0.101505        -2.7621
  58   0.0000      -0.097589        -2.6555

MULLIKEN ATOMIC CHARGES AND SPIN POPULATIONS
--------------------------------------------
   0 N :   -0.060921    0.207041
   1 C :   -0.136906    0.018791
   2 C :    0.090494   -0.007349
   3 O :   -0.289339    0.039313
   4 C :   -0.266846    0.052791
   5 C :   -0.225231    0.017695
   6 C :   -0.293510    0.085309
   7 C :   -0.269075    0.004829
   8 N :   -0.290844    0.477193
   9 H :    0.275167   -0.007862
  10 C :    0.167724   -0.046028
  11 N :   -0.092561    0.045962
  12 H :    0.247978   -0.001678
  13 O :   -0.239008    0.108513
  14 C :   -0.435538    0.000989
  15 H :    0.191935    0.002924
  16 H :    0.172829    0.002371
  17 H :    0.202391    0.000233
  18 C :   -0.522845    0.002208
  19 H :    0.208958   -0.001126
  20 H :    0.158743   -0.000157
  21 H :    0.200178   -0.001011
  22 H :    0.184587    0.013669
  23 H :    0.163890   -0.001283
  24 H :    0.196108    0.002606
  25 H :    0.172811    0.000712
  26 H :    0.157415   -0.000774
  27 H :    0.175582   -0.001119
  28 H :    0.175262   -0.002779
  29 H :    0.200129    0.010312
  30 H :    0.197992    0.008665
  31 H :    0.291904   -0.015456
  32 H :    0.290547   -0.015503
Sum of atomic charges         :    1.0000000

LOEWDIN ATOMIC CHARGES AND SPIN POPULATIONS
-------------------------------------------
   0 N :    0.132445    0.173118
   1 C :   -0.031064    0.035690
   2 C :   -0.096595    0.000796
   3 O :   -0.159268    0.035753
   4 C :   -0.026249    0.045241
   5 C :   -0.056266    0.018208
   6 C :   -0.045074    0.078494
   7 C :   -0.013457    0.034943
   8 N :    0.175071    0.413676
   9 H :    0.105927    0.001983
  10 C :   -0.079783   -0.024825
  11 N :    0.072385    0.039761
  12 H :    0.089315    0.000281
  13 O :   -0.119343    0.101740
  14 C :    0.033115    0.002390
  15 H :    0.044514    0.002417
  16 H :    0.041408    0.002090
  17 H :    0.056323    0.000445
  18 C :   -0.020815    0.000289
  19 H :    0.069156   -0.001171
  20 H :    0.041358   -0.000113
  21 H :    0.064069   -0.000849
  22 H :    0.077579    0.010353
  23 H :    0.055113    0.000122
  24 H :    0.066636    0.003274
  25 H :    0.057253    0.000710
  26 H :    0.053684    0.000337
  27 H :    0.052444    0.000111
  28 H :    0.052989   -0.000516
  29 H :    0.063181    0.009162
  30 H :    0.061677    0.007381
  31 H :    0.091322    0.004386
  32 H :    0.090953    0.004325

  Mayer bond orders larger than 0.100000
B(  0-N ,  1-C ) :   1.0626 B(  0-N ,  8-N ) :   0.1227 B(  0-N ,  9-H ) :   0.8734
B(  0-N , 10-C ) :   1.1439 B(  1-C ,  2-C ) :   0.8874 B(  1-C ,  4-C ) :   0.8885
B(  1-C , 13-O ) :   0.1232 B(  1-C , 22-H ) :   0.9489 B(  2-C ,  3-O ) :   1.8581
B(  2-C , 11-N ) :   1.2238 B(  4-C ,  5-C ) :   0.9590 B(  4-C , 23-H ) :   0.9619
B(  4-C , 24-H ) :   0.9457 B(  5-C ,  6-C ) :   0.9442 B(  5-C , 25-H ) :   0.9565
B(  5-C , 26-H ) :   0.9688 B(  6-C ,  7-C ) :   0.8832 B(  6-C , 27-H ) :   0.9621
B(  6-C , 28-H ) :   0.9623 B(  7-C ,  8-N ) :   1.0478 B(  7-C , 29-H ) :   0.9402
B(  7-C , 30-H ) :   0.9437 B(  8-N , 31-H ) :   0.9096 B(  8-N , 32-H ) :   0.9102
B( 10-C , 13-O ) :   1.8971 B( 10-C , 18-C ) :   0.9200 B( 11-N , 12-H ) :   0.9210
B( 11-N , 14-C ) :   0.9586 B( 14-C , 15-H ) :   0.9472 B( 14-C , 16-H ) :   0.9546
B( 14-C , 17-H ) :   0.9439 B( 18-C , 19-H ) :   0.9408 B( 18-C , 20-H ) :   0.9699
B( 18-C , 21-H ) :   0.9481

FINAL SINGLE POINT ENERGY      -668.593618377080

DIPOLE MOMENT
-------------
                                X             Y             Z
Electronic contribution:     -2.50290      -6.53560      -0.37170
Nuclear contribution   :      3.93087       9.45648      -0.04446
                        -----------------------------------------
Total Dipole Moment    :      1.42797       2.92087      -0.41615
                        -----------------------------------------
Magnitude (a.u.)       :      3.27777
Magnitude (Debye)      :      8.33144

Rotational constants in cm-1:     0.019640     0.013107     0.008921
Rotational constants in MHz :   588.781656   392.924183   267.435126

CHEMICAL SHIELDING SUMMARY (ppm)  --  Orbital contribution
----------------------------------------------------------

  Nucleus  Element    Isotropic     Anisotropy
  -------  -------  ------------   ------------
      8       N          101.673        154.609
     27       H           29.992          4.355
     28       H           29.840          3.452
     29       H           28.058          4.798
     30       H           28.145          4.594
     31       H           26.224          8.046
     32       H           26.253          8.021

                             ****ORCA TERMINATED NORMALLY****
TOTAL RUN TIME: 0 days 0 hours 4 minutes 23 seconds 471 msec
