                         Program Version 5.0.4 -  RELEASE  -
|  1> ! M062X def2-TZVP OPT FREQ
|  2> %pal nprocs 16 end
|  3> *XYZFile 1 2 opt.xyz
|  4>
|  5>                          ****END OF INPUT****
 Total Charge           Charge          ....    1
 Multiplicity           Mult            ....    2
 Number of Electrons    NEL             ....  109
FINAL SINGLE POINT ENERGY      -668.791416065799
FINAL SINGLE POINT ENERGY      -668.795626753356
FINAL SINGLE POINT ENERGY      -668.796307880534
FINAL SINGLE POINT ENERGY      -668.796783582812
FINAL SINGLE POINT ENERGY      -668.796938428074
FINAL SINGLE POINT ENERGY      -668.796970777583
FINAL SINGLE POINT ENERGY      -668.796957494166
FINAL SINGLE POINT ENERGY      -668.796974823983
FINAL SINGLE POINT ENERGY      -668.796989570144
FINAL SINGLE POINT ENERGY      -668.796987451901
                    ***********************HURRAY********************

CARTESIAN COORDINATES (ANGSTROEM)
---------------------------------
  N     -7.898758    0.888266    0.005381
  C     -6.475236    0.859741    0.154596
  C     -6.157274    0.882630    1.647623
  O     -6.951711    1.356190    2.438397
  C     -5.777733    2.052962   -0.553754
  C     -6.147093    3.388340    0.091509
  C     -5.673712    4.490480   -0.840207
  C     -6.057701    5.917570   -0.156136
  N     -5.689983    6.925875   -1.032964
  H     -8.438066    1.019869    0.849785
  C     -8.485698    0.598772   -1.194122
  N     -4.936577    0.424052    1.980114
  H     -4.401833   -0.058981    1.276495
  O     -7.813323    0.412698   -2.187966
  C     -4.467442    0.384133    3.354952
  H     -4.615443   -0.602486    3.794452
  H     -3.409653    0.637253    3.388694
  H     -5.035900    1.111366    3.927990
  C     -9.989193    0.520245   -1.200337
  H    -10.271729   -0.512975   -1.401924
  H    -10.439432    0.837994   -0.262170
  H    -10.367111    1.128586   -2.019887
  H     -6.082668   -0.042675   -0.325161
  H     -4.696780    1.903981   -0.524058
  H     -6.097217    2.012489   -1.596279
  H     -5.684199    3.487866    1.075236
  H     -7.229349    3.439792    0.227790
  H     -4.593679    4.486848   -0.984364
  H     -6.169388    4.446020   -1.809227
  H     -5.493180    5.970279    0.772882
  H     -7.133586    5.904709    0.004829
  H     -6.309840    7.227545   -1.777394
  H     -4.738998    7.277571   -1.065035

 Multiplicity           Mult            ....    2
 Number of Electrons    NEL             ....  109
 Basis Dimension        Dim             ....  548

ORBITAL ENERGIES
----------------
                 SPIN UP ORBITALS
  NO   OCC          E(Eh)            E(eV)
   0   1.0000     -19.706487      -536.2408
   1   1.0000     -19.689732      -535.7849
   2   1.0000     -15.029769      -408.9808
   3   1.0000     -14.886767      -405.0895
   4   1.0000     -14.877487      -404.8370
   5   1.0000     -10.782958      -293.4192
   6   1.0000     -10.754802      -292.6530
   7   1.0000     -10.740754      -292.2708
   8   1.0000     -10.736267      -292.1487
   9   1.0000     -10.705564      -291.3132
  10   1.0000     -10.688568      -290.8507
  11   1.0000     -10.673409      -290.4382
  12   1.0000     -10.664767      -290.2031
  13   1.0000     -10.627433      -289.1872
  14   1.0000      -1.282158       -34.8893
  15   1.0000      -1.274077       -34.6694
  16   1.0000      -1.264223       -34.4013
  17   1.0000      -1.147429       -31.2231
  18   1.0000      -1.144523       -31.1441
  19   1.0000      -1.072185       -29.1757
  20   1.0000      -1.008059       -27.4307
  21   1.0000      -0.960819       -26.1452
  22   1.0000      -0.923153       -25.1203
  23   1.0000      -0.906926       -24.6787
  24   1.0000      -0.864287       -23.5185
  25   1.0000      -0.850974       -23.1562
  26   1.0000      -0.830045       -22.5867
  27   1.0000      -0.782863       -21.3028
  28   1.0000      -0.774347       -21.0711
  29   1.0000      -0.757150       -20.6031
  30   1.0000      -0.729547       -19.8520
  31   1.0000      -0.713983       -19.4285
  32   1.0000      -0.703400       -19.1405
  33   1.0000      -0.678574       -18.4649
  34   1.0000      -0.656237       -17.8571
  35   1.0000      -0.653687       -17.7877
  36   1.0000      -0.649144       -17.6641
  37   1.0000      -0.634564       -17.2674
  38   1.0000      -0.624693       -16.9988
  39   1.0000      -0.616483       -16.7754
  40   1.0000      -0.601247       -16.3608
  41   1.0000      -0.592635       -16.1264
  42   1.0000      -0.585255       -15.9256
  43   1.0000      -0.579298       -15.7635
  44   1.0000      -0.560100       -15.2411
  45   1.0000      -0.557845       -15.1797
  46   1.0000      -0.555904       -15.1269
  47   1.0000      -0.552853       -15.0439
  48   1.0000      -0.544213       -14.8088
  49   1.0000      -0.532041       -14.4776
  50   1.0000      -0.509980       -13.8773
  51   1.0000      -0.452075       -12.3016
  52   1.0000      -0.438539       -11.9332
  53   1.0000      -0.430885       -11.7250
  54   1.0000      -0.422906       -11.5078
  55   0.0000      -0.121191        -3.2978
  56   0.0000      -0.076753        -2.0885
  57   0.0000      -0.072953        -1.9851
  58   0.0000      -0.060161        -1.6371
  59   0.0000      -0.047338        -1.2881

                 SPIN DOWN ORBITALS
  NO   OCC          E(Eh)            E(eV)
   0   1.0000     -19.706490      -536.2409
   1   1.0000     -19.689423      -535.7764
   2   1.0000     -15.020962      -408.7412
   3   1.0000     -14.886644      -405.0862
   4   1.0000     -14.876877      -404.8204
   5   1.0000     -10.782649      -293.4108
   6   1.0000     -10.754819      -292.6535
   7   1.0000     -10.740828      -292.2728
   8   1.0000     -10.734751      -292.1074
   9   1.0000     -10.705298      -291.3060
  10   1.0000     -10.688252      -290.8421
  11   1.0000     -10.673048      -290.4284
  12   1.0000     -10.664769      -290.2031
  13   1.0000     -10.627434      -289.1872
  14   1.0000      -1.281993       -34.8848
  15   1.0000      -1.263353       -34.3776
  16   1.0000      -1.244217       -33.8569
  17   1.0000      -1.147000       -31.2115
  18   1.0000      -1.142456       -31.0878
  19   1.0000      -1.062271       -28.9059
  20   1.0000      -0.999531       -27.1986
  21   1.0000      -0.953882       -25.9565
  22   1.0000      -0.922445       -25.1010
  23   1.0000      -0.902029       -24.5455
  24   1.0000      -0.859121       -23.3779
  25   1.0000      -0.838173       -22.8078
  26   1.0000      -0.827481       -22.5169
  27   1.0000      -0.782536       -21.2939
  28   1.0000      -0.768169       -20.9029
  29   1.0000      -0.747858       -20.3502
  30   1.0000      -0.728151       -19.8140
  31   1.0000      -0.710534       -19.3346
  32   1.0000      -0.678169       -18.4539
  33   1.0000      -0.668884       -18.2013
  34   1.0000      -0.653782       -17.7903
  35   1.0000      -0.649673       -17.6785
  36   1.0000      -0.638392       -17.3715
  37   1.0000      -0.630860       -17.1666
  38   1.0000      -0.619311       -16.8523
  39   1.0000      -0.612467       -16.6661
  40   1.0000      -0.599332       -16.3087
  41   1.0000      -0.587669       -15.9913
  42   1.0000      -0.578112       -15.7312
  43   1.0000      -0.569151       -15.4874
  44   1.0000      -0.559947       -15.2369
  45   1.0000      -0.556132       -15.1331
  46   1.0000      -0.552955       -15.0467
  47   1.0000      -0.544061       -14.8046
  48   1.0000      -0.541397       -14.7322
  49   1.0000      -0.512304       -13.9405
  50   1.0000      -0.451255       -12.2793
  51   1.0000      -0.435733       -11.8569
  52   1.0000      -0.430158       -11.7052
  53   1.0000      -0.415655       -11.3105
  54   0.0000      -0.330708        -8.9990
  55   0.0000      -0.118974        -3.2375
  56   0.0000      -0.074684        -2.0323
  57   0.0000      -0.072099        -1.9619
  58   0.0000      -0.059791        -1.6270

MULLIKEN ATOMIC CHARGES AND SPIN POPULATIONS
--------------------------------------------
   0 N :   -0.399909    0.042418
   1 C :   -0.098702    0.018974
   2 C :    0.352672   -0.002011
   3 O :   -0.400644   -0.000436
   4 C :   -0.326738    0.036382
   5 C :   -0.342193    0.040546
   6 C :   -0.253441    0.176787
   7 C :   -0.171231    0.020207
   8 N :   -0.243381    0.675315
   9 H :    0.281107   -0.001730
  10 C :    0.388673   -0.008795
  11 N :   -0.348718    0.007315
  12 H :    0.258406   -0.000264
  13 O :   -0.388546    0.016894
  14 C :   -0.310028   -0.000281
  15 H :    0.170540    0.000578
  16 H :    0.154327    0.000348
  17 H :    0.179707    0.000059
  18 C :   -0.447996   -0.000100
  19 H :    0.179875   -0.000176
  20 H :    0.137027   -0.000025
  21 H :    0.165324   -0.000113
  22 H :    0.214096    0.009650
  23 H :    0.181724   -0.001424
  24 H :    0.223966    0.000172
  25 H :    0.187212   -0.002150
  26 H :    0.188412   -0.002488
  27 H :    0.193489   -0.003972
  28 H :    0.204129   -0.005583
  29 H :    0.215421    0.018225
  30 H :    0.214518    0.015373
  31 H :    0.321166   -0.024803
  32 H :    0.319737   -0.024893
Sum of atomic charges         :    1.0000000

LOEWDIN ATOMIC CHARGES AND SPIN POPULATIONS
-------------------------------------------
   0 N :    0.150741    0.031724
   1 C :   -0.242083    0.024802
   2 C :   -0.451719    0.000175
   3 O :    0.068483   -0.000349
   4 C :   -0.212763    0.035088
   5 C :   -0.248666    0.034469
   6 C :   -0.183249    0.157541
   7 C :   -0.255058    0.115619
   8 N :    0.191925    0.548380
   9 H :    0.200054    0.000092
  10 C :   -0.469900   -0.000913
  11 N :    0.108867    0.005688
  12 H :    0.192171    0.000011
  13 O :    0.075398    0.013856
  14 C :   -0.288802    0.000634
  15 H :    0.124309    0.000352
  16 H :    0.120854    0.000232
  17 H :    0.133733    0.000053
  18 C :   -0.253294   -0.000443
  19 H :    0.149444   -0.000129
  20 H :    0.126316   -0.000026
  21 H :    0.142396   -0.000089
  22 H :    0.173424    0.007031
  23 H :    0.146785   -0.000319
  24 H :    0.160194    0.000842
  25 H :    0.153311   -0.000342
  26 H :    0.153206   -0.000100
  27 H :    0.149786    0.000088
  28 H :    0.151167   -0.000753
  29 H :    0.164107    0.013531
  30 H :    0.163577    0.012074
  31 H :    0.202950    0.000578
  32 H :    0.202336    0.000602

  Mayer bond orders larger than 0.100000
B(  0-N ,  1-C ) :   0.9639 B(  0-N ,  9-H ) :   0.8765 B(  0-N , 10-C ) :   1.1635
B(  1-C ,  2-C ) :   0.9279 B(  1-C ,  4-C ) :   0.8476 B(  1-C , 22-H ) :   0.9794
B(  2-C ,  3-O ) :   1.8847 B(  2-C , 11-N ) :   1.2441 B(  4-C ,  5-C ) :   0.8222
B(  4-C , 23-H ) :   0.9708 B(  4-C , 24-H ) :   0.9700 B(  5-C ,  6-C ) :   0.8577
B(  5-C , 25-H ) :   0.9679 B(  5-C , 26-H ) :   0.9814 B(  6-C ,  7-C ) :   0.6978
B(  6-C , 27-H ) :   0.9582 B(  6-C , 28-H ) :   0.9741 B(  7-C ,  8-N ) :   1.0979
B(  7-C , 29-H ) :   0.9560 B(  7-C , 30-H ) :   0.9591 B(  8-N , 31-H ) :   0.8768
B(  8-N , 32-H ) :   0.8771 B( 10-C , 13-O ) :   1.8989 B( 10-C , 18-C ) :   0.9184
B( 11-N , 12-H ) :   0.9123 B( 11-N , 14-C ) :   0.8913 B( 14-C , 15-H ) :   0.9677
B( 14-C , 16-H ) :   0.9632 B( 14-C , 17-H ) :   0.9604 B( 18-C , 19-H ) :   0.9472
B( 18-C , 20-H ) :   0.9881 B( 18-C , 21-H ) :   0.9571

FINAL SINGLE POINT ENERGY      -668.796989606176

DIPOLE MOMENT
-------------
                                X             Y             Z
Electronic contribution:     -2.03655      -3.79865      -0.85693
Nuclear contribution   :      3.99925       9.10577       0.09269
                        -----------------------------------------
Total Dipole Moment    :      1.96270       5.30712      -0.76423
                        -----------------------------------------
Magnitude (a.u.)       :      5.70980
Magnitude (Debye)      :     14.51316

VIBRATIONAL FREQUENCIES
-----------------------

Scaling factor for frequencies =  1.000000000  (already applied!)

   0:         0.00 cm**-1
   1:         0.00 cm**-1
   2:         0.00 cm**-1
   3:         0.00 cm**-1
   4:         0.00 cm**-1
   5:         0.00 cm**-1
   6:        27.98 cm**-1
   7:        43.39 cm**-1
   8:        60.16 cm**-1
   9:        67.64 cm**-1
  10:        85.41 cm**-1
  11:        89.10 cm**-1
  12:        97.84 cm**-1
  13:       104.99 cm**-1
  14:       122.78 cm**-1
  15:       152.28 cm**-1
  16:       156.24 cm**-1
  17:       186.14 cm**-1
  18:       211.57 cm**-1
  19:       254.23 cm**-1
  20:       290.66 cm**-1
  21:       308.77 cm**-1
  22:       353.38 cm**-1
  23:       365.52 cm**-1
  24:       367.28 cm**-1
  25:       381.89 cm**-1
  26:       467.61 cm**-1
  27:       513.69 cm**-1
  28:       548.41 cm**-1
  29:       567.03 cm**-1
  30:       653.43 cm**-1
  31:       654.57 cm**-1
  32:       666.30 cm**-1
  33:       700.86 cm**-1
  34:       712.85 cm**-1
  35:       758.16 cm**-1
  36:       794.93 cm**-1
  37:       824.24 cm**-1
  38:       886.41 cm**-1
  39:       890.15 cm**-1
  40:       934.49 cm**-1
  41:       994.98 cm**-1
  42:       998.97 cm**-1
  43:      1021.72 cm**-1
  44:      1032.76 cm**-1
  45:      1043.97 cm**-1
  46:      1064.07 cm**-1
  47:      1073.20 cm**-1
  48:      1122.31 cm**-1
  49:      1138.80 cm**-1
  50:      1158.23 cm**-1
  51:      1167.26 cm**-1
  52:      1185.33 cm**-1
  53:      1189.66 cm**-1
  54:      1232.29 cm**-1
  55:      1249.26 cm**-1
  56:      1251.85 cm**-1
  57:      1261.64 cm**-1
  58:      1279.72 cm**-1
  59:      1291.62 cm**-1
  60:      1311.78 cm**-1
  61:      1343.36 cm**-1
  62:      1351.63 cm**-1
  63:      1368.53 cm**-1
  64:      1384.70 cm**-1
  65:      1408.01 cm**-1
  66:      1455.45 cm**-1
  67:      1471.73 cm**-1
  68:      1483.99 cm**-1
  69:      1485.30 cm**-1
  70:      1488.37 cm**-1
  71:      1494.84 cm**-1
  72:      1499.34 cm**-1
  73:      1502.51 cm**-1
  74:      1510.00 cm**-1
  75:      1528.84 cm**-1
  76:      1591.23 cm**-1
  77:      1656.46 cm**-1
  78:      1780.87 cm**-1
  79:      1792.74 cm**-1
  80:      3065.86 cm**-1
  81:      3081.98 cm**-1
  82:      3087.33 cm**-1
  83:      3090.65 cm**-1
  84:      3092.15 cm**-1
  85:      3105.28 cm**-1
  86:      3113.41 cm**-1
  87:      3132.11 cm**-1
  88:      3149.34 cm**-1
  89:      3161.80 cm**-1
  90:      3171.30 cm**-1
  91:      3175.68 cm**-1
  92:      3187.73 cm**-1
  93:      3197.37 cm**-1
  94:      3199.98 cm**-1
  95:      3509.43 cm**-1
  96:      3605.34 cm**-1
  97:      3639.10 cm**-1
  98:      3644.22 cm**-1

IR SPECTRUM
-----------

 Mode   freq       eps      Int      T**2         TX        TY        TZ
       cm**-1   L/(mol*cm) km/mol    a.u.
----------------------------------------------------------------------------
  6:     27.98   0.001049    5.30  0.011698  ( 0.080541  0.054683  0.047125)
  7:     43.39   0.000096    0.48  0.000690  (-0.012530  0.004243  0.022698)
  8:     60.16   0.000386    1.95  0.002000  ( 0.030636  0.006299 -0.031970)
  9:     67.64   0.000460    2.32  0.002121  ( 0.036259  0.017250 -0.022556)
 10:     85.41   0.000531    2.68  0.001941  (-0.004874  0.041754 -0.013190)
 11:     89.10   0.001846    9.33  0.006465  ( 0.001569 -0.079262  0.013421)
 12:     97.84   0.001708    8.63  0.005446  (-0.020568  0.047928 -0.052212)
 13:    104.99   0.000144    0.73  0.000428  ( 0.002132 -0.014171  0.014904)
 14:    122.78   0.001502    7.59  0.003818  ( 0.033290  0.037803  0.035783)
 15:    152.28   0.000199    1.01  0.000408  (-0.007819  0.001592 -0.018549)
 16:    156.24   0.000620    3.13  0.001238  ( 0.025362 -0.010034  0.022237)
 17:    186.14   0.002350   11.88  0.003940  (-0.031123 -0.054404 -0.003415)
 18:    211.57   0.000226    1.14  0.000334  ( 0.015446 -0.005509  0.008036)
 19:    254.23   0.000627    3.17  0.000769  ( 0.021711 -0.001756  0.017165)
 20:    290.66   0.001109    5.61  0.001191  (-0.028071  0.016409 -0.011565)
 21:    308.77   0.002725   13.77  0.002754  (-0.025729 -0.043974  0.012568)
 22:    353.38   0.001139    5.76  0.001006  ( 0.017638  0.025852  0.005131)
 23:    365.52   0.000165    0.84  0.000141  ( 0.003914 -0.005972 -0.009493)
 24:    367.28   0.000569    2.87  0.000483  ( 0.015481 -0.005408 -0.014640)
 25:    381.89   0.004140   20.92  0.003383  ( 0.030440 -0.028213  0.040744)
 26:    467.61   0.001792    9.06  0.001196  ( 0.033246  0.000535 -0.009499)
 27:    513.69   0.004639   23.44  0.002818  (-0.022185 -0.041102  0.025230)
 28:    548.41   0.002952   14.92  0.001680  ( 0.020931  0.035127 -0.002801)
 29:    567.03   0.015651   79.09  0.008613  (-0.064998 -0.065830 -0.007424)
 30:    653.43   0.042107  212.79  0.020109  ( 0.020560 -0.133504 -0.043167)
 31:    654.57   0.010052   50.80  0.004792  (-0.018249  0.066557  0.005419)
 32:    666.30   0.003348   16.92  0.001568  (-0.021612 -0.028984 -0.016152)
 33:    700.86   0.044417  224.47  0.019777  ( 0.023030  0.135798  0.028386)
 34:    712.85   0.004950   25.02  0.002167  (-0.015632 -0.042253 -0.011727)
 35:    758.16   0.001548    7.82  0.000637  (-0.017245 -0.017037 -0.007049)
 36:    794.93   0.016397   82.86  0.006437  ( 0.011506  0.078334 -0.012973)
 37:    824.24   0.009570   48.37  0.003623  ( 0.007877  0.057749 -0.015049)
 38:    886.41   0.001821    9.20  0.000641  (-0.008655  0.012605 -0.020185)
 39:    890.15   0.004120   20.82  0.001444  (-0.017537 -0.033108 -0.006375)
 40:    934.49   0.003419   17.28  0.001142  ( 0.016224 -0.029611  0.001327)
 41:    994.98   0.001154    5.83  0.000362  ( 0.007914  0.017007  0.003178)
 42:    998.97   0.004761   24.06  0.001487  (-0.002116 -0.038503 -0.000556)
 43:   1021.72   0.001883    9.51  0.000575  ( 0.003924 -0.004558  0.023213)
 44:   1032.76   0.003982   20.12  0.001203  ( 0.017865  0.029639  0.002359)
 45:   1043.97   0.021917  110.76  0.006552  (-0.032871 -0.073963 -0.000729)
 46:   1064.07   0.000741    3.74  0.000217  ( 0.001949  0.014556 -0.001270)
 47:   1073.20   0.001850    9.35  0.000538  ( 0.022035  0.006868 -0.002291)
 48:   1122.31   0.027589  139.43  0.007671  (-0.023907 -0.082544  0.016922)
 49:   1138.80   0.003656   18.48  0.001002  (-0.021582 -0.022826  0.003883)
 50:   1158.23   0.042396  214.25  0.011423  ( 0.002783  0.105000 -0.019745)
 51:   1167.26   0.222266  1123.24  0.059422  ( 0.069491  0.232691 -0.021168)
 52:   1185.33   0.026992  136.40  0.007106  (-0.033811 -0.077212  0.001088)
 53:   1189.66   0.003393   17.15  0.000890  ( 0.021804 -0.014642  0.014153)
 54:   1232.29   0.003608   18.23  0.000914  (-0.024946 -0.006656 -0.015716)
 55:   1249.26   0.003095   15.64  0.000773  (-0.011425 -0.018618 -0.017204)
 56:   1251.85   0.013771   69.59  0.003433  ( 0.039697  0.036797  0.022428)
 57:   1261.64   0.093266  471.33  0.023069  (-0.043859 -0.145332  0.004892)
 58:   1279.72   0.002939   14.85  0.000717  (-0.017469 -0.010717 -0.017221)
 59:   1291.62   0.008225   41.57  0.001987  ( 0.014568  0.038368  0.017405)
 60:   1311.78   0.001382    6.98  0.000329  ( 0.013359  0.008939  0.008383)
 61:   1343.36   0.003326   16.81  0.000773  ( 0.015256  0.022616  0.005325)
 62:   1351.63   0.000366    1.85  0.000084  ( 0.002440  0.008854  0.000313)
 63:   1368.53   0.001406    7.11  0.000321  ( 0.001572  0.007741 -0.016071)
 64:   1384.70   0.010626   53.70  0.002395  (-0.028930 -0.021253 -0.033259)
 65:   1408.01   0.019300   97.53  0.004277  (-0.048764 -0.035803 -0.024854)
 66:   1455.45   0.006219   31.43  0.001333  (-0.015179  0.032675  0.005951)
 67:   1471.73   0.002401   12.14  0.000509  (-0.007670  0.007431 -0.019879)
 68:   1483.99   0.002816   14.23  0.000592  ( 0.007060  0.022331 -0.006601)
 69:   1485.30   0.002852   14.41  0.000599  (-0.006705 -0.009822 -0.021396)
 70:   1488.37   0.013883   70.16  0.002911  (-0.025321 -0.032786 -0.034565)
 71:   1494.84   0.029300  148.07  0.006117  (-0.027841 -0.072819  0.006245)
 72:   1499.34   0.004343   21.95  0.000904  (-0.023414 -0.005291 -0.018104)
 73:   1502.51   0.013201   66.71  0.002742  ( 0.032827  0.033733 -0.022942)
 74:   1510.00   0.014151   71.51  0.002925  (-0.031714 -0.006289 -0.043350)
 75:   1528.84   0.128296  648.36  0.026188  ( 0.112859  0.099147  0.060169)
 76:   1591.23   0.050370  254.55  0.009878  ( 0.052098 -0.070692  0.046548)
 77:   1656.46   0.011281   57.01  0.002125  (-0.013926 -0.032009  0.030113)
 78:   1780.87   0.078749  397.97  0.013799  ( 0.076034 -0.037287 -0.081411)
 79:   1792.74   0.015921   80.46  0.002771  ( 0.048899  0.017018  0.009522)
 80:   3065.86   0.008147   41.17  0.000829  (-0.013127 -0.025623 -0.000649)
 81:   3081.98   0.001298    6.56  0.000131  ( 0.006553 -0.002815  0.008973)
 82:   3087.33   0.004345   21.96  0.000439  ( 0.011086 -0.010259  0.014526)
 83:   3090.65   0.000312    1.58  0.000032  ( 0.000798 -0.003395 -0.004400)
 84:   3092.15   0.001274    6.44  0.000129  (-0.010463  0.003334  0.002817)
 85:   3105.28   0.000902    4.56  0.000091  ( 0.005066 -0.003583 -0.007222)
 86:   3113.41   0.000178    0.90  0.000018  ( 0.001801  0.003683 -0.001007)
 87:   3132.11   0.000123    0.62  0.000012  (-0.000018  0.002683  0.002248)
 88:   3149.34   0.003154   15.94  0.000312  (-0.004528  0.016647 -0.003856)
 89:   3161.80   0.000974    4.92  0.000096  (-0.007835 -0.005821  0.000911)
 90:   3171.30   0.000363    1.84  0.000036  ( 0.004641  0.002227 -0.003042)
 91:   3175.68   0.000864    4.37  0.000085  ( 0.006180 -0.005644  0.003855)
 92:   3187.73   0.000749    3.78  0.000073  ( 0.004352 -0.000414 -0.007362)
 93:   3197.37   0.000035    0.18  0.000003  ( 0.001394 -0.001127  0.000415)
 94:   3199.98   0.000388    1.96  0.000038  (-0.005398 -0.001276 -0.002654)
 95:   3509.43   0.458984  2319.52  0.040814  (-0.046488 -0.190231  0.049646)
 96:   3605.34   0.044862  226.71  0.003883  ( 0.019479  0.041598 -0.042109)
 97:   3639.10   0.025205  127.37  0.002161  (-0.042240 -0.000274 -0.019419)
 98:   3644.22   0.013175   66.58  0.001128  ( 0.022165 -0.023437 -0.009359)

--------------------------
THERMOCHEMISTRY AT 298.15K
--------------------------

Temperature         ... 298.15 K
Pressure            ... 1.00 atm
Total Mass          ... 201.27 AMU

Throughout the following assumptions are being made:
  (1) The electronic state is orbitally nondegenerate
      but the spin degeneracy is treated
  (2) There are no thermally accessible electronically excited states
  (3) Hindered rotations indicated by low frequency modes are not
      treated as such but are treated as vibrations and this may
      cause some error
  (4) All equations used are the standard statistical mechanics
      equations for an ideal gas
  (5) All vibrations are strictly harmonic

freq.      27.98  E(vib)   ...       0.55
freq.      43.39  E(vib)   ...       0.53
freq.      60.16  E(vib)   ...       0.51
freq.      67.64  E(vib)   ...       0.50
freq.      85.41  E(vib)   ...       0.48
freq.      89.10  E(vib)   ...       0.47
freq.      97.84  E(vib)   ...       0.46
freq.     104.99  E(vib)   ...       0.46
freq.     122.78  E(vib)   ...       0.43
freq.     152.28  E(vib)   ...       0.40
freq.     156.24  E(vib)   ...       0.40
freq.     186.14  E(vib)   ...       0.37
freq.     211.57  E(vib)   ...       0.34
freq.     254.23  E(vib)   ...       0.30
freq.     290.66  E(vib)   ...       0.27
freq.     308.77  E(vib)   ...       0.26
freq.     353.38  E(vib)   ...       0.22
freq.     365.52  E(vib)   ...       0.22
freq.     367.28  E(vib)   ...       0.21
freq.     381.89  E(vib)   ...       0.21
freq.     467.61  E(vib)   ...       0.16
freq.     513.69  E(vib)   ...       0.13
freq.     548.41  E(vib)   ...       0.12
freq.     567.03  E(vib)   ...       0.11
freq.     653.43  E(vib)   ...       0.08
freq.     654.57  E(vib)   ...       0.08
freq.     666.30  E(vib)   ...       0.08
freq.     700.86  E(vib)   ...       0.07
freq.     712.85  E(vib)   ...       0.07
freq.     758.16  E(vib)   ...       0.06
freq.     794.93  E(vib)   ...       0.05
freq.     824.24  E(vib)   ...       0.04
freq.     886.41  E(vib)   ...       0.04
freq.     890.15  E(vib)   ...       0.04
freq.     934.49  E(vib)   ...       0.03
freq.     994.98  E(vib)   ...       0.02
freq.     998.97  E(vib)   ...       0.02
freq.    1021.72  E(vib)   ...       0.02
freq.    1032.76  E(vib)   ...       0.02
freq.    1043.97  E(vib)   ...       0.02
freq.    1064.07  E(vib)   ...       0.02
freq.    1073.20  E(vib)   ...       0.02
freq.    1122.31  E(vib)   ...       0.01
freq.    1138.80  E(vib)   ...       0.01
freq.    1158.23  E(vib)   ...       0.01
freq.    1167.26  E(vib)   ...       0.01
freq.    1185.33  E(vib)   ...       0.01
freq.    1189.66  E(vib)   ...       0.01
freq.    1232.29  E(vib)   ...       0.01
freq.    1249.26  E(vib)   ...       0.01
freq.    1251.85  E(vib)   ...       0.01
freq.    1261.64  E(vib)   ...       0.01
freq.    1279.72  E(vib)   ...       0.01
freq.    1291.62  E(vib)   ...       0.01
freq.    1311.78  E(vib)   ...       0.01
freq.    1343.36  E(vib)   ...       0.01
freq.    1351.63  E(vib)   ...       0.01
freq.    1368.53  E(vib)   ...       0.01
freq.    1384.70  E(vib)   ...       0.00
freq.    1408.01  E(vib)   ...       0.00
freq.    1455.45  E(vib)   ...       0.00
freq.    1471.73  E(vib)   ...       0.00
freq.    1483.99  E(vib)   ...       0.00
freq.    1485.30  E(vib)   ...       0.00
freq.    1488.37  E(vib)   ...       0.00
freq.    1494.84  E(vib)   ...       0.00
freq.    1499.34  E(vib)   ...       0.00
freq.    1502.51  E(vib)   ...       0.00
freq.    1510.00  E(vib)   ...       0.00
freq.    1528.84  E(vib)   ...       0.00
freq.    1591.23  E(vib)   ...       0.00
freq.    1656.46  E(vib)   ...       0.00
freq.    1780.87  E(vib)   ...       0.00
freq.    1792.74  E(vib)   ...       0.00
freq.    3065.86  E(vib)   ...       0.00
freq.    3081.98  E(vib)   ...       0.00
freq.    3087.33  E(vib)   ...       0.00
freq.    3090.65  E(vib)   ...       0.00
freq.    3092.15  E(vib)   ...       0.00
freq.    3105.28  E(vib)   ...       0.00
freq.    3113.41  E(vib)   ...       0.00
freq.    3132.11  E(vib)   ...       0.00
freq.    3149.34  E(vib)   ...       0.00
freq.    3161.80  E(vib)   ...       0.00
freq.    3171.30  E(vib)   ...       0.00
freq.    3175.68  E(vib)   ...       0.00
freq.    3187.73  E(vib)   ...       0.00
freq.    3197.37  E(vib)   ...       0.00
freq.    3199.98  E(vib)   ...       0.00
freq.    3509.43  E(vib)   ...       0.00
freq.    3605.34  E(vib)   ...       0.00
freq.    3639.10  E(vib)   ...       0.00
freq.    3644.22  E(vib)   ...       0.00

------------
INNER ENERGY
------------

The inner energy is: U= E(el) + E(ZPE) + E(vib) + E(rot) + E(trans)
    E(el)   - is the total energy from the electronic structure calculation
              = E(kin-el) + E(nuc-el) + E(el-el) + E(nuc-nuc)
    E(ZPE)  - the the zero temperature vibrational energy from the frequency calculation
    E(vib)  - the the finite temperature correction to E(ZPE) due to population
              of excited vibrational states
    E(rot)  - is the rotational thermal energy
    E(trans)- is the translational thermal energy

Summary of contributions to the inner energy U:
Electronic energy                ...   -668.79698961 Eh
Zero point energy                ...      0.29018784 Eh     182.10 kcal/mol
Thermal vibrational correction   ...      0.01449578 Eh       9.10 kcal/mol
Thermal rotational correction    ...      0.00141627 Eh       0.89 kcal/mol
Thermal translational correction ...      0.00141627 Eh       0.89 kcal/mol
-----------------------------------------------------------------------
Total thermal energy                   -668.48947344 Eh

Summary of corrections to the electronic energy:
(perhaps to be used in another calculation)
Total thermal correction                  0.01732832 Eh      10.87 kcal/mol
Non-thermal (ZPE) correction              0.29018784 Eh     182.10 kcal/mol
-----------------------------------------------------------------------
Total correction                          0.30751616 Eh     192.97 kcal/mol

--------
ENTHALPY
--------

The enthalpy is H = U + kB*T
                kB is Boltzmann's constant
Total free energy                 ...   -668.48947344 Eh
Thermal Enthalpy correction       ...      0.00094421 Eh       0.59 kcal/mol
-----------------------------------------------------------------------
Total Enthalpy                    ...   -668.48852923 Eh

Note: Only C1 symmetry has been detected, increase convergence thresholds
      if your molecule has a higher symmetry. Symmetry factor of 1.0 is
      used for the rotational entropy correction.

Note: Rotational entropy computed according to Herzberg

Rotational constants in cm-1:     0.019642     0.014201     0.009399

                             ****ORCA TERMINATED NORMALLY****
TOTAL RUN TIME: 0 days 0 hours 28 minutes 6 seconds 257 msec
