                         Program Version 5.0.4 -  RELEASE  -
|  1> ! B3LYP EPR-II OPT
|  2> %pal nprocs 16 end
|  3> *XYZFile 1 2 model.xyz
|  4>
|  5>                          ****END OF INPUT****
 Total Charge           Charge          ....    1
 Multiplicity           Mult            ....    2
 Number of Electrons    NEL             ....  109
FINAL SINGLE POINT ENERGY      -668.590550170978
FINAL SINGLE POINT ENERGY      -668.592960809338
FINAL SINGLE POINT ENERGY      -668.593374889909
FINAL SINGLE POINT ENERGY      -668.593570729906
FINAL SINGLE POINT ENERGY      -668.593672199437
FINAL SINGLE POINT ENERGY      -668.593727923133
FINAL SINGLE POINT ENERGY      -668.593764514834
FINAL SINGLE POINT ENERGY      -668.593792889397
FINAL SINGLE POINT ENERGY      -668.593818190669
FINAL SINGLE POINT ENERGY      -668.593847161241
FINAL SINGLE POINT ENERGY      -668.594133494257
FINAL SINGLE POINT ENERGY      -668.594180340059
FINAL SINGLE POINT ENERGY      -668.594203808076
FINAL SINGLE POINT ENERGY      -668.594198410828
FINAL SINGLE POINT ENERGY      -668.594218013317
FINAL SINGLE POINT ENERGY      -668.594219746509
FINAL SINGLE POINT ENERGY      -668.594221443066
FINAL SINGLE POINT ENERGY      -668.594223007770
FINAL SINGLE POINT ENERGY      -668.594224742562
                    ***********************HURRAY********************

CARTESIAN COORDINATES (ANGSTROEM)
---------------------------------
  N     -7.870461    0.826523    0.035052
  C     -6.440480    0.872750    0.145971
  C     -6.111651    0.865289    1.655453
  O     -6.905426    1.358932    2.457027
  C     -5.781514    2.132514   -0.553268
  C     -6.226610    3.481290    0.019605
  C     -5.628220    4.622707   -0.830104
  C     -6.127031    6.021563   -0.286418
  N     -5.610467    7.107757   -1.060227
  H     -8.385453    1.086060    0.872436
  C     -8.519696    0.482071   -1.142068
  N     -4.911010    0.329432    1.989516
  H     -4.383485   -0.145234    1.270063
  O     -7.865326    0.241720   -2.153451
  C     -4.465122    0.187441    3.378416
  H     -4.664807   -0.821444    3.753619
  H     -3.392946    0.388047    3.438346
  H     -5.011052    0.905334    3.990134
  C    -10.033661    0.416365   -1.087282
  H    -10.336101   -0.621494   -1.256461
  H    -10.449429    0.757612   -0.136590
  H    -10.442594    1.013358   -1.905991
  H     -6.027396    0.006706   -0.385068
  H     -4.694564    2.020611   -0.477880
  H     -6.049628    2.041746   -1.611447
  H     -5.908672    3.592953    1.061501
  H     -7.320364    3.548049    0.009436
  H     -4.533989    4.607607   -0.791478
  H     -5.929832    4.525580   -1.878288
  H     -5.797780    6.130039    0.751352
  H     -7.219604    6.045479   -0.322718
  H     -6.036606    7.347067   -1.947520
  H     -4.648507    7.402578   -0.941929

 Multiplicity           Mult            ....    2
 Number of Electrons    NEL             ....  109
 Basis Dimension        Dim             ....  371

ORBITAL ENERGIES
----------------
                 SPIN UP ORBITALS
  NO   OCC          E(Eh)            E(eV)
   0   1.0000     -19.249483      -523.8051
   1   1.0000     -19.249151      -523.7960
   2   1.0000     -14.540706      -395.6727
   3   1.0000     -14.509937      -394.8355
   4   1.0000     -14.497943      -394.5091
   5   1.0000     -10.429146      -283.7915
   6   1.0000     -10.426034      -283.7068
   7   1.0000     -10.383646      -282.5534
   8   1.0000     -10.381028      -282.4821
   9   1.0000     -10.344266      -281.4818
  10   1.0000     -10.333714      -281.1947
  11   1.0000     -10.328224      -281.0453
  12   1.0000     -10.328069      -281.0411
  13   1.0000     -10.300839      -280.3001
  14   1.0000      -1.176328       -32.0095
  15   1.0000      -1.167080       -31.7579
  16   1.0000      -1.087910       -29.6035
  17   1.0000      -1.065801       -29.0019
  18   1.0000      -1.054449       -28.6930
  19   1.0000      -0.945986       -25.7416
  20   1.0000      -0.903623       -24.5888
  21   1.0000      -0.857861       -23.3436
  22   1.0000      -0.842753       -22.9325
  23   1.0000      -0.809894       -22.0383
  24   1.0000      -0.771739       -21.0001
  25   1.0000      -0.741470       -20.1764
  26   1.0000      -0.719804       -19.5869
  27   1.0000      -0.707268       -19.2457
  28   1.0000      -0.706339       -19.2205
  29   1.0000      -0.666066       -18.1246
  30   1.0000      -0.634782       -17.2733
  31   1.0000      -0.615924       -16.7601
  32   1.0000      -0.611608       -16.6427
  33   1.0000      -0.601942       -16.3797
  34   1.0000      -0.594992       -16.1906
  35   1.0000      -0.580504       -15.7963
  36   1.0000      -0.571082       -15.5399
  37   1.0000      -0.565058       -15.3760
  38   1.0000      -0.556252       -15.1364
  39   1.0000      -0.548476       -14.9248
  40   1.0000      -0.533728       -14.5235
  41   1.0000      -0.527373       -14.3505
  42   1.0000      -0.513197       -13.9648
  43   1.0000      -0.510250       -13.8846
  44   1.0000      -0.508667       -13.8415
  45   1.0000      -0.504689       -13.7333
  46   1.0000      -0.494143       -13.4463
  47   1.0000      -0.489429       -13.3180
  48   1.0000      -0.478656       -13.0249
  49   1.0000      -0.472740       -12.8639
  50   1.0000      -0.434064       -11.8115
  51   1.0000      -0.409022       -11.1301
  52   1.0000      -0.397560       -10.8182
  53   1.0000      -0.386880       -10.5275
  54   1.0000      -0.385612       -10.4930
  55   0.0000      -0.121673        -3.3109
  56   0.0000      -0.115114        -3.1324
  57   0.0000      -0.105625        -2.8742
  58   0.0000      -0.098925        -2.6919
  59   0.0000      -0.089748        -2.4422

                 SPIN DOWN ORBITALS
  NO   OCC          E(Eh)            E(eV)
   0   1.0000     -19.248478      -523.7777
   1   1.0000     -19.246376      -523.7205
   2   1.0000     -14.531196      -395.4140
   3   1.0000     -14.505851      -394.7243
   4   1.0000     -14.496908      -394.4809
   5   1.0000     -10.429243      -283.7941
   6   1.0000     -10.426853      -283.7291
   7   1.0000     -10.383357      -282.5455
   8   1.0000     -10.380490      -282.4675
   9   1.0000     -10.342578      -281.4359
  10   1.0000     -10.332772      -281.1690
  11   1.0000     -10.328212      -281.0449
  12   1.0000     -10.327681      -281.0305
  13   1.0000     -10.300806      -280.2992
  14   1.0000      -1.173186       -31.9240
  15   1.0000      -1.163025       -31.6475
  16   1.0000      -1.068553       -29.0768
  17   1.0000      -1.057593       -28.7786
  18   1.0000      -1.052132       -28.6300
  19   1.0000      -0.941515       -25.6199
  20   1.0000      -0.898618       -24.4526
  21   1.0000      -0.854455       -23.2509
  22   1.0000      -0.840947       -22.8833
  23   1.0000      -0.806716       -21.9519
  24   1.0000      -0.768146       -20.9023
  25   1.0000      -0.738625       -20.0990
  26   1.0000      -0.718501       -19.5514
  27   1.0000      -0.704707       -19.1761
  28   1.0000      -0.700440       -19.0599
  29   1.0000      -0.664430       -18.0801
  30   1.0000      -0.629541       -17.1307
  31   1.0000      -0.613394       -16.6913
  32   1.0000      -0.607882       -16.5413
  33   1.0000      -0.595230       -16.1970
  34   1.0000      -0.592967       -16.1354
  35   1.0000      -0.578100       -15.7309
  36   1.0000      -0.568305       -15.4644
  37   1.0000      -0.555025       -15.1030
  38   1.0000      -0.552317       -15.0293
  39   1.0000      -0.544647       -14.8206
  40   1.0000      -0.531606       -14.4657
  41   1.0000      -0.520827       -14.1724
  42   1.0000      -0.512333       -13.9413
  43   1.0000      -0.509640       -13.8680
  44   1.0000      -0.504435       -13.7264
  45   1.0000      -0.503635       -13.7046
  46   1.0000      -0.488072       -13.2811
  47   1.0000      -0.486525       -13.2390
  48   1.0000      -0.476266       -12.9599
  49   1.0000      -0.463423       -12.6104
  50   1.0000      -0.397826       -10.8254
  51   1.0000      -0.388029       -10.5588
  52   1.0000      -0.381773       -10.3886
  53   1.0000      -0.367427        -9.9982
  54   0.0000      -0.338532        -9.2119
  55   0.0000      -0.119053        -3.2396
  56   0.0000      -0.112868        -3.0713
  57   0.0000      -0.101503        -2.7620
  58   0.0000      -0.097432        -2.6513

MULLIKEN ATOMIC CHARGES AND SPIN POPULATIONS
--------------------------------------------
   0 N :   -0.060795    0.206331
   1 C :   -0.135281    0.018883
   2 C :    0.090543   -0.007250
   3 O :   -0.289418    0.038938
   4 C :   -0.266345    0.052632
   5 C :   -0.224193    0.017731
   6 C :   -0.292261    0.085328
   7 C :   -0.268374    0.004830
   8 N :   -0.290340    0.477093
   9 H :    0.274753   -0.007792
  10 C :    0.168083   -0.045946
  11 N :   -0.091952    0.045999
  12 H :    0.247517   -0.001668
  13 O :   -0.239091    0.109289
  14 C :   -0.434800    0.001007
  15 H :    0.191606    0.002927
  16 H :    0.172481    0.002378
  17 H :    0.202054    0.000232
  18 C :   -0.521744    0.002333
  19 H :    0.208641   -0.001120
  20 H :    0.158350   -0.000157
  21 H :    0.199873   -0.001016
  22 H :    0.183512    0.013664
  23 H :    0.163423   -0.001289
  24 H :    0.195617    0.002609
  25 H :    0.172278    0.000719
  26 H :    0.156919   -0.000773
  27 H :    0.175115   -0.001119
  28 H :    0.174810   -0.002782
  29 H :    0.199709    0.010314
  30 H :    0.197584    0.008666
  31 H :    0.291539   -0.015472
  32 H :    0.290185   -0.015519
Sum of atomic charges         :    1.0000000

LOEWDIN ATOMIC CHARGES AND SPIN POPULATIONS
-------------------------------------------
   0 N :    0.132308    0.172522
   1 C :   -0.031032    0.035671
   2 C :   -0.096616    0.000839
   3 O :   -0.159307    0.035415
   4 C :   -0.026196    0.045148
   5 C :   -0.056149    0.018228
   6 C :   -0.044974    0.078504
   7 C :   -0.013423    0.034947
   8 N :    0.175060    0.413569
   9 H :    0.105879    0.002001
  10 C :   -0.079684   -0.024695
  11 N :    0.072523    0.039809
  12 H :    0.089244    0.000289
  13 O :   -0.119046    0.102464
  14 C :    0.033134    0.002408
  15 H :    0.044463    0.002424
  16 H :    0.041363    0.002096
  17 H :    0.056279    0.000445
  18 C :   -0.020633    0.000390
  19 H :    0.069115   -0.001168
  20 H :    0.041346   -0.000110
  21 H :    0.064032   -0.000842
  22 H :    0.077504    0.010364
  23 H :    0.055067    0.000113
  24 H :    0.066582    0.003293
  25 H :    0.057214    0.000715
  26 H :    0.053639    0.000338
  27 H :    0.052418    0.000112
  28 H :    0.052961   -0.000517
  29 H :    0.063136    0.009162
  30 H :    0.061630    0.007378
  31 H :    0.091266    0.004376
  32 H :    0.090898    0.004314

  Mayer bond orders larger than 0.100000
B(  0-N ,  1-C ) :   1.0627 B(  0-N ,  8-N ) :   0.1223 B(  0-N ,  9-H ) :   0.8734
B(  0-N , 10-C ) :   1.1443 B(  1-C ,  2-C ) :   0.8876 B(  1-C ,  4-C ) :   0.8885
B(  1-C , 13-O ) :   0.1230 B(  1-C , 22-H ) :   0.9490 B(  2-C ,  3-O ) :   1.8585
B(  2-C , 11-N ) :   1.2235 B(  4-C ,  5-C ) :   0.9592 B(  4-C , 23-H ) :   0.9621
B(  4-C , 24-H ) :   0.9458 B(  5-C ,  6-C ) :   0.9444 B(  5-C , 25-H ) :   0.9565
B(  5-C , 26-H ) :   0.9689 B(  6-C ,  7-C ) :   0.8835 B(  6-C , 27-H ) :   0.9621
B(  6-C , 28-H ) :   0.9623 B(  7-C ,  8-N ) :   1.0479 B(  7-C , 29-H ) :   0.9402
B(  7-C , 30-H ) :   0.9437 B(  8-N , 31-H ) :   0.9098 B(  8-N , 32-H ) :   0.9103
B( 10-C , 13-O ) :   1.8965 B( 10-C , 18-C ) :   0.9203 B( 11-N , 12-H ) :   0.9211
B( 11-N , 14-C ) :   0.9590 B( 14-C , 15-H ) :   0.9474 B( 14-C , 16-H ) :   0.9546
B( 14-C , 17-H ) :   0.9440 B( 18-C , 19-H ) :   0.9410 B( 18-C , 20-H ) :   0.9697
B( 18-C , 21-H ) :   0.9483

FINAL SINGLE POINT ENERGY      -668.594225830162

DIPOLE MOMENT
-------------
                                X             Y             Z
Electronic contribution:     -2.50480      -6.53769      -0.37354
Nuclear contribution   :      3.93087       9.45648      -0.04446
                        -----------------------------------------
Total Dipole Moment    :      1.42607       2.91878      -0.41800
                        -----------------------------------------
Magnitude (a.u.)       :      3.27532
Magnitude (Debye)      :      8.32520

Rotational constants in cm-1:     0.019640     0.013107     0.008921
Rotational constants in MHz :   588.781656   392.924183   267.435126

                             ****ORCA TERMINATED NORMALLY****
TOTAL RUN TIME: 0 days 0 hours 56 minutes 27 seconds 56 msec
