                         Program Version 5.0.4 -  RELEASE  -
|  1> ! B3LYP EPR-II AUTOAUX
|  2> %pal nprocs 16 end
|  3> *XYZFile 0 2 opt.xyz
|  4> %EPRNMR
|  5>         GTENSOR   TRUE
|  6>         NUCLEI    = 9,10,11,12,13,14,29,30,31,32 {SHIFT, AISO, ADIP, AORB}
|  7>         ORI       GIAO
|  8> END
|  9>
| 10>                          ****END OF INPUT****

CARTESIAN COORDINATES (ANGSTROEM)
---------------------------------
  N      1.415789   -0.943031    0.180509
  C      1.081352    0.271600   -0.545650
  C      1.464003    1.460128    0.361271
  O      1.698910    1.308220    1.562239
  C     -0.411325    0.322765   -0.970272
  C     -1.409881    0.345927    0.203549
  C     -2.840291    0.364917   -0.250063
  C     -3.966459    0.010439    0.674169
  N     -5.202052   -0.278508   -0.079904
  H     -3.103541    0.892426   -1.166315
  H     -4.185812    0.866089    1.338080
  H     -3.643340   -0.810859    1.340038
  H     -5.957536   -0.484713    0.568090
  H     -5.062418   -1.117510   -0.636764
  H      1.612304   -0.815330    1.165268
  C      1.729450   -2.109523   -0.461645
  N      1.499350    2.672351   -0.263746
  H      1.310230    2.701879   -1.254078
  O      1.654198   -2.231347   -1.685145
  C      2.171274   -3.261141    0.436795
  H      3.189543   -3.546543    0.157884
  H      2.143221   -3.018250    1.502281
  H      1.522996   -4.119893    0.243943
  C      1.793679    3.921627    0.429930
  H      2.644817    4.430651   -0.033442
  H      0.927888    4.592783    0.421564
  H      2.043235    3.677486    1.462573
  H      1.686487    0.299804   -1.460066
  H     -0.571677    1.205118   -1.603719
  H     -0.595503   -0.553527   -1.599124
  H     -1.202766    1.227762    0.837464
  H     -1.234291   -0.523991    0.850152

 Total Charge           Charge          ....    0
 Multiplicity           Mult            ....    2
 Number of Electrons    NEL             ....  109
 Basis Dimension        Dim             ....  364

ORBITAL ENERGIES
----------------
                 SPIN UP ORBITALS
  NO   OCC          E(Eh)            E(eV)
   0   1.0000     -19.123056      -520.3648
   1   1.0000     -19.100106      -519.7403
   2   1.0000     -14.373333      -391.1183
   3   1.0000     -14.349863      -390.4796
   4   1.0000     -14.307258      -389.3203
   5   1.0000     -10.304628      -280.4032
   6   1.0000     -10.288479      -279.9638
   7   1.0000     -10.239540      -278.6320
   8   1.0000     -10.225932      -278.2618
   9   1.0000     -10.210397      -277.8390
  10   1.0000     -10.192455      -277.3508
  11   1.0000     -10.189316      -277.2654
  12   1.0000     -10.188090      -277.2320
  13   1.0000     -10.186124      -277.1785
  14   1.0000      -1.046048       -28.4644
  15   1.0000      -1.022205       -27.8156
  16   1.0000      -0.932542       -25.3757
  17   1.0000      -0.916798       -24.9473
  18   1.0000      -0.875758       -23.8306
  19   1.0000      -0.801144       -21.8002
  20   1.0000      -0.759956       -20.6794
  21   1.0000      -0.727874       -19.8065
  22   1.0000      -0.711998       -19.3745
  23   1.0000      -0.671063       -18.2605
  24   1.0000      -0.620909       -16.8958
  25   1.0000      -0.598495       -16.2859
  26   1.0000      -0.575935       -15.6720
  27   1.0000      -0.562144       -15.2967
  28   1.0000      -0.538209       -14.6454
  29   1.0000      -0.487254       -13.2589
  30   1.0000      -0.482206       -13.1215
  31   1.0000      -0.473095       -12.8736
  32   1.0000      -0.467507       -12.7215
  33   1.0000      -0.458982       -12.4895
  34   1.0000      -0.456276       -12.4159
  35   1.0000      -0.446597       -12.1525
  36   1.0000      -0.437571       -11.9069
  37   1.0000      -0.426043       -11.5932
  38   1.0000      -0.416980       -11.3466
  39   1.0000      -0.402476       -10.9519
  40   1.0000      -0.398478       -10.8431
  41   1.0000      -0.395487       -10.7618
  42   1.0000      -0.390110       -10.6154
  43   1.0000      -0.376830       -10.2541
  44   1.0000      -0.374188       -10.1822
  45   1.0000      -0.362491        -9.8639
  46   1.0000      -0.354044        -9.6340
  47   1.0000      -0.343808        -9.3555
  48   1.0000      -0.330678        -8.9982
  49   1.0000      -0.271719        -7.3939
  50   1.0000      -0.270194        -7.3524
  51   1.0000      -0.250190        -6.8080
  52   1.0000      -0.246146        -6.6980
  53   1.0000      -0.238913        -6.5012
  54   1.0000      -0.186806        -5.0833
  55   0.0000       0.005824         0.1585
  56   0.0000       0.010903         0.2967
  57   0.0000       0.021973         0.5979
  58   0.0000       0.027549         0.7497
  59   0.0000       0.030532         0.8308

                 SPIN DOWN ORBITALS
  NO   OCC          E(Eh)            E(eV)
   0   1.0000     -19.122993      -520.3631
   1   1.0000     -19.100106      -519.7403
   2   1.0000     -14.373313      -391.1177
   3   1.0000     -14.349853      -390.4794
   4   1.0000     -14.306933      -389.3114
   5   1.0000     -10.304639      -280.4035
   6   1.0000     -10.288479      -279.9638
   7   1.0000     -10.239537      -278.6320
   8   1.0000     -10.225933      -278.2618
   9   1.0000     -10.211278      -277.8630
  10   1.0000     -10.192160      -277.3428
  11   1.0000     -10.188948      -277.2554
  12   1.0000     -10.186124      -277.1785
  13   1.0000     -10.175677      -276.8942
  14   1.0000      -1.045967       -28.4622
  15   1.0000      -1.022199       -27.8155
  16   1.0000      -0.932490       -25.3743
  17   1.0000      -0.916755       -24.9462
  18   1.0000      -0.873630       -23.7727
  19   1.0000      -0.797399       -21.6983
  20   1.0000      -0.752800       -20.4847
  21   1.0000      -0.727664       -19.8007
  22   1.0000      -0.706090       -19.2137
  23   1.0000      -0.669061       -18.2061
  24   1.0000      -0.619397       -16.8546
  25   1.0000      -0.598480       -16.2855
  26   1.0000      -0.569545       -15.4981
  27   1.0000      -0.551161       -14.9979
  28   1.0000      -0.538106       -14.6426
  29   1.0000      -0.485419       -13.2089
  30   1.0000      -0.479535       -13.0488
  31   1.0000      -0.472719       -12.8633
  32   1.0000      -0.465542       -12.6680
  33   1.0000      -0.458389       -12.4734
  34   1.0000      -0.453606       -12.3432
  35   1.0000      -0.445891       -12.1333
  36   1.0000      -0.435559       -11.8522
  37   1.0000      -0.425267       -11.5721
  38   1.0000      -0.413413       -11.2495
  39   1.0000      -0.402238       -10.9455
  40   1.0000      -0.396562       -10.7910
  41   1.0000      -0.392220       -10.6729
  42   1.0000      -0.387992       -10.5578
  43   1.0000      -0.375344       -10.2136
  44   1.0000      -0.370409       -10.0793
  45   1.0000      -0.359810        -9.7909
  46   1.0000      -0.348938        -9.4951
  47   1.0000      -0.340927        -9.2771
  48   1.0000      -0.328124        -8.9287
  49   1.0000      -0.271596        -7.3905
  50   1.0000      -0.270034        -7.3480
  51   1.0000      -0.250037        -6.8039
  52   1.0000      -0.246139        -6.6978
  53   1.0000      -0.237177        -6.4539
  54   0.0000      -0.045572        -1.2401
  55   0.0000       0.006772         0.1843
  56   0.0000       0.011202         0.3048
  57   0.0000       0.022253         0.6055
  58   0.0000       0.027687         0.7534

MULLIKEN ATOMIC CHARGES AND SPIN POPULATIONS
--------------------------------------------
   0 N :   -0.119309    0.000441
   1 C :   -0.130670   -0.002976
   2 C :    0.083740    0.005955
   3 O :   -0.332569    0.000877
   4 C :   -0.294300    0.014358
   5 C :   -0.250376   -0.064169
   6 C :   -0.128521    1.002504
   7 C :   -0.296407   -0.057590
   8 N :   -0.470549    0.005336
   9 H :    0.137751   -0.045457
  10 H :    0.158835    0.052830
  11 H :    0.137202    0.018023
  12 H :    0.209290    0.001608
  13 H :    0.219101    0.002457
  14 H :    0.252554   -0.000033
  15 C :    0.169256   -0.000096
  16 N :   -0.092258   -0.000162
  17 H :    0.231220   -0.000016
  18 O :   -0.324321    0.000006
  19 C :   -0.554835    0.000042
  20 H :    0.186354    0.000000
  21 H :    0.149023    0.000000
  22 H :    0.185938    0.000002
  23 C :   -0.458217   -0.000208
  24 H :    0.162508    0.000026
  25 H :    0.163851    0.000080
  26 H :    0.200483    0.000005
  27 H :    0.168395   -0.000146
  28 H :    0.132449   -0.000489
  29 H :    0.190562   -0.001157
  30 H :    0.154954    0.052073
  31 H :    0.158864    0.015875
Sum of atomic charges         :    0.0000000

LOEWDIN ATOMIC CHARGES AND SPIN POPULATIONS
-------------------------------------------
   0 N :    0.062770    0.000578
   1 C :   -0.049045    0.000578
   2 C :   -0.095053    0.001577
   3 O :   -0.196250    0.002182
   4 C :   -0.054571    0.010567
   5 C :   -0.083047    0.008556
   6 C :   -0.061722    0.826420
   7 C :   -0.070891    0.010819
   8 N :   -0.096203    0.009346
   9 H :    0.045385    0.009281
  10 H :    0.047724    0.043854
  11 H :    0.028947    0.016354
  12 H :    0.048457    0.000451
  13 H :    0.053313    0.001016
  14 H :    0.090280   -0.000006
  15 C :   -0.104551    0.000067
  16 N :    0.041731    0.000772
  17 H :    0.079751    0.000013
  18 O :   -0.197237    0.000004
  19 C :   -0.043234    0.000027
  20 H :    0.054558   -0.000000
  21 H :    0.033543    0.000004
  22 H :    0.053891   -0.000001
  23 C :    0.011225    0.000060
  24 H :    0.032040    0.000021
  25 H :    0.031674    0.000030
  26 H :    0.055048    0.000016
  27 H :    0.067785   -0.000002
  28 H :    0.042331    0.000041
  29 H :    0.060129    0.000015
  30 H :    0.057933    0.043182
  31 H :    0.053288    0.014177

  Mayer bond orders larger than 0.100000
B(  0-N ,  1-C ) :   1.0206 B(  0-N , 14-H ) :   0.8930 B(  0-N , 15-C ) :   1.2050
B(  1-C ,  2-C ) :   0.9000 B(  1-C ,  4-C ) :   0.9268 B(  1-C , 18-O ) :   0.1455
B(  1-C , 27-H ) :   0.9692 B(  2-C ,  3-O ) :   1.8697 B(  2-C , 16-N ) :   1.1856
B(  4-C ,  5-C ) :   0.9605 B(  4-C , 28-H ) :   0.9808 B(  4-C , 29-H ) :   0.9606
B(  5-C ,  6-C ) :   0.9765 B(  5-C , 30-H ) :   0.9455 B(  5-C , 31-H ) :   0.9681
B(  6-C ,  7-C ) :   0.9692 B(  6-C ,  9-H ) :   0.9906 B(  7-C ,  8-N ) :   1.0102
B(  7-C , 10-H ) :   0.9430 B(  7-C , 11-H ) :   0.9474 B(  8-N , 12-H ) :   0.9445
B(  8-N , 13-H ) :   0.9465 B( 15-C , 18-O ) :   1.8625 B( 15-C , 19-C ) :   0.8939
B( 16-N , 17-H ) :   0.9297 B( 16-N , 23-C ) :   0.9693 B( 19-C , 20-H ) :   0.9576
B( 19-C , 21-H ) :   0.9761 B( 19-C , 22-H ) :   0.9599 B( 23-C , 24-H ) :   0.9618
B( 23-C , 25-H ) :   0.9575 B( 23-C , 26-H ) :   0.9433

FINAL SINGLE POINT ENERGY      -668.217297809196

DIPOLE MOMENT
-------------
                                X             Y             Z
Electronic contribution:      8.51108      -1.50059      -1.81341
Nuclear contribution   :     -8.62599       2.35973       2.30063
                        -----------------------------------------
Total Dipole Moment    :     -0.11491       0.85914       0.48722
                        -----------------------------------------
Magnitude (a.u.)       :      0.99434
Magnitude (Debye)      :      2.52741

Rotational constants in cm-1:     0.019579     0.013194     0.008916
Rotational constants in MHz :   586.965856   395.536530   267.287973

CHEMICAL SHIELDING SUMMARY (ppm)  --  Orbital contribution
----------------------------------------------------------

  Nucleus  Element    Isotropic     Anisotropy
  -------  -------  ------------   ------------
      8       N          225.046         37.482
      9       H           27.197          7.247
     10       H           28.286          5.417
     11       H           28.257          5.948
     12       H           31.282         13.853
     13       H           31.419         10.884
     28       H           30.507          5.927
     29       H           29.478          4.948
     30       H           29.828          6.020
     31       H           29.691          4.287

                             ****ORCA TERMINATED NORMALLY****
TOTAL RUN TIME: 0 days 0 hours 5 minutes 23 seconds 970 msec
