                         Program Version 5.0.4 -  RELEASE  -
|  1> ! M062X def2-TZVP OPT FREQ
|  2> %pal nprocs 16 end
|  3> *XYZFile 0 2 opt.xyz
|  4>
|  5>                          ****END OF INPUT****
 Total Charge           Charge          ....    0
 Multiplicity           Mult            ....    2
 Number of Electrons    NEL             ....  109
FINAL SINGLE POINT ENERGY      -668.442166767887
FINAL SINGLE POINT ENERGY      -668.445059606151
FINAL SINGLE POINT ENERGY      -668.445148057650
FINAL SINGLE POINT ENERGY      -668.445205635316
FINAL SINGLE POINT ENERGY      -668.445241897133
FINAL SINGLE POINT ENERGY      -668.445272090913
FINAL SINGLE POINT ENERGY      -668.445287159382
FINAL SINGLE POINT ENERGY      -668.445302293093
FINAL SINGLE POINT ENERGY      -668.445306549694
FINAL SINGLE POINT ENERGY      -668.445307092333
FINAL SINGLE POINT ENERGY      -668.445304598955
FINAL SINGLE POINT ENERGY      -668.445300088736
FINAL SINGLE POINT ENERGY      -668.445291930484
FINAL SINGLE POINT ENERGY      -668.445283661755
FINAL SINGLE POINT ENERGY      -668.445292297655
FINAL SINGLE POINT ENERGY      -668.445299297314
FINAL SINGLE POINT ENERGY      -668.445302523094
FINAL SINGLE POINT ENERGY      -668.445301416808
                    ***********************HURRAY********************

CARTESIAN COORDINATES (ANGSTROEM)
---------------------------------
  N      1.436748   -0.950845    0.174886
  C      1.118076    0.256968   -0.545329
  C      1.417966    1.434499    0.379705
  O      1.629593    1.276901    1.567491
  C     -0.344958    0.277022   -1.013685
  C     -1.342473    0.342080    0.137260
  C     -2.755507    0.257439   -0.315412
  C     -3.862025    0.149634    0.669143
  N     -5.106600   -0.242069    0.012911
  H     -3.016457    0.559836   -1.323386
  H     -4.035122    1.126866    1.144257
  H     -3.552926   -0.525720    1.481744
  H     -5.867261   -0.288407    0.678719
  H     -5.005789   -1.161916   -0.399701
  H      1.602178   -0.848234    1.165290
  C      1.712177   -2.104040   -0.481299
  N      1.395568    2.644945   -0.219495
  H      1.227252    2.679502   -1.210765
  O      1.642319   -2.190893   -1.692821
  C      2.116794   -3.274986    0.382552
  H      3.166258   -3.497250    0.189684
  H      1.977691   -3.089779    1.445979
  H      1.533427   -4.142794    0.080926
  C      1.621084    3.881199    0.499674
  H      2.442767    4.440069    0.052348
  H      0.725157    4.503238    0.503611
  H      1.879487    3.622894    1.523143
  H      1.762908    0.310786   -1.427265
  H     -0.501815    1.126537   -1.684707
  H     -0.502490   -0.627336   -1.603910
  H     -1.183168    1.274383    0.703712
  H     -1.129023   -0.462722    0.850606

 Multiplicity           Mult            ....    2
 Number of Electrons    NEL             ....  109
 Basis Dimension        Dim             ....  542

ORBITAL ENERGIES
----------------
                 SPIN UP ORBITALS
  NO   OCC          E(Eh)            E(eV)
   0   1.0000     -19.606595      -533.5226
   1   1.0000     -19.583922      -532.9056
   2   1.0000     -14.787142      -402.3786
   3   1.0000     -14.766235      -401.8097
   4   1.0000     -14.724144      -400.6643
   5   1.0000     -10.653547      -289.8978
   6   1.0000     -10.637623      -289.4644
   7   1.0000     -10.589316      -288.1499
   8   1.0000     -10.577785      -287.8362
   9   1.0000     -10.559927      -287.3502
  10   1.0000     -10.542339      -286.8716
  11   1.0000     -10.539676      -286.7992
  12   1.0000     -10.537431      -286.7381
  13   1.0000     -10.536862      -286.7226
  14   1.0000      -1.181100       -32.1394
  15   1.0000      -1.157769       -31.5045
  16   1.0000      -1.049070       -28.5466
  17   1.0000      -1.035287       -28.1716
  18   1.0000      -0.990584       -26.9552
  19   1.0000      -0.911669       -24.8078
  20   1.0000      -0.865293       -23.5458
  21   1.0000      -0.828661       -22.5490
  22   1.0000      -0.810397       -22.0520
  23   1.0000      -0.765728       -20.8365
  24   1.0000      -0.712281       -19.3822
  25   1.0000      -0.685043       -18.6410
  26   1.0000      -0.664861       -18.0918
  27   1.0000      -0.649052       -17.6616
  28   1.0000      -0.622480       -16.9385
  29   1.0000      -0.572917       -15.5899
  30   1.0000      -0.564514       -15.3612
  31   1.0000      -0.555473       -15.1152
  32   1.0000      -0.549788       -14.9605
  33   1.0000      -0.542292       -14.7565
  34   1.0000      -0.535339       -14.5673
  35   1.0000      -0.527532       -14.3549
  36   1.0000      -0.514668       -14.0048
  37   1.0000      -0.501656       -13.6507
  38   1.0000      -0.494605       -13.4589
  39   1.0000      -0.477452       -12.9921
  40   1.0000      -0.470634       -12.8066
  41   1.0000      -0.469242       -12.7687
  42   1.0000      -0.461728       -12.5643
  43   1.0000      -0.452526       -12.3138
  44   1.0000      -0.445795       -12.1307
  45   1.0000      -0.435745       -11.8572
  46   1.0000      -0.422442       -11.4952
  47   1.0000      -0.412042       -11.2122
  48   1.0000      -0.397115       -10.8061
  49   1.0000      -0.348130        -9.4731
  50   1.0000      -0.338723        -9.2171
  51   1.0000      -0.327470        -8.9109
  52   1.0000      -0.316877        -8.6227
  53   1.0000      -0.310919        -8.4605
  54   1.0000      -0.243391        -6.6230
  55   0.0000       0.042223         1.1490
  56   0.0000       0.054112         1.4725
  57   0.0000       0.065222         1.7748
  58   0.0000       0.070311         1.9133
  59   0.0000       0.072974         1.9857

                 SPIN DOWN ORBITALS
  NO   OCC          E(Eh)            E(eV)
   0   1.0000     -19.606556      -533.5215
   1   1.0000     -19.583919      -532.9055
   2   1.0000     -14.787122      -402.3780
   3   1.0000     -14.766217      -401.8092
   4   1.0000     -14.723908      -400.6579
   5   1.0000     -10.653548      -289.8978
   6   1.0000     -10.637623      -289.4644
   7   1.0000     -10.589331      -288.1504
   8   1.0000     -10.577785      -287.8362
   9   1.0000     -10.560601      -287.3686
  10   1.0000     -10.542229      -286.8686
  11   1.0000     -10.538130      -286.7571
  12   1.0000     -10.536862      -286.7226
  13   1.0000     -10.532820      -286.6126
  14   1.0000      -1.181036       -32.1376
  15   1.0000      -1.157754       -31.5041
  16   1.0000      -1.049008       -28.5449
  17   1.0000      -1.035230       -28.1700
  18   1.0000      -0.987868       -26.8813
  19   1.0000      -0.907296       -24.6888
  20   1.0000      -0.856945       -23.3187
  21   1.0000      -0.828117       -22.5342
  22   1.0000      -0.804018       -21.8785
  23   1.0000      -0.763606       -20.7788
  24   1.0000      -0.710596       -19.3363
  25   1.0000      -0.685020       -18.6403
  26   1.0000      -0.656233       -17.8570
  27   1.0000      -0.636636       -17.3237
  28   1.0000      -0.622268       -16.9328
  29   1.0000      -0.571192       -15.5429
  30   1.0000      -0.560832       -15.2610
  31   1.0000      -0.553708       -15.0672
  32   1.0000      -0.548116       -14.9150
  33   1.0000      -0.541204       -14.7269
  34   1.0000      -0.530684       -14.4407
  35   1.0000      -0.526923       -14.3383
  36   1.0000      -0.510755       -13.8984
  37   1.0000      -0.500710       -13.6250
  38   1.0000      -0.490771       -13.3546
  39   1.0000      -0.475647       -12.9430
  40   1.0000      -0.469757       -12.7827
  41   1.0000      -0.463434       -12.6107
  42   1.0000      -0.461011       -12.5447
  43   1.0000      -0.450735       -12.2651
  44   1.0000      -0.440594       -11.9892
  45   1.0000      -0.432824       -11.7777
  46   1.0000      -0.415801       -11.3145
  47   1.0000      -0.408100       -11.1050
  48   1.0000      -0.394306       -10.7296
  49   1.0000      -0.347989        -9.4693
  50   1.0000      -0.338460        -9.2100
  51   1.0000      -0.327442        -8.9102
  52   1.0000      -0.316609        -8.6154
  53   1.0000      -0.308692        -8.3999
  54   0.0000      -0.015956        -0.4342
  55   0.0000       0.041639         1.1330
  56   0.0000       0.053184         1.4472
  57   0.0000       0.062300         1.6953
  58   0.0000       0.069959         1.9037

MULLIKEN ATOMIC CHARGES AND SPIN POPULATIONS
--------------------------------------------
   0 N :   -0.396848   -0.000372
   1 C :   -0.101323   -0.005152
   2 C :    0.369124    0.005363
   3 O :   -0.413520    0.001867
   4 C :   -0.332480    0.030133
   5 C :   -0.247151   -0.078980
   6 C :   -0.243163    1.003212
   7 C :   -0.115667   -0.073005
   8 N :   -0.555893    0.012034
   9 H :    0.173341   -0.044837
  10 H :    0.132215    0.056809
  11 H :    0.123340    0.020352
  12 H :    0.224710    0.001409
  13 H :    0.230972    0.001764
  14 H :    0.268727    0.000071
  15 C :    0.389267    0.000302
  16 N :   -0.346446    0.000373
  17 H :    0.247205    0.000072
  18 O :   -0.411598    0.000170
  19 C :   -0.459173    0.000042
  20 H :    0.159557    0.000005
  21 H :    0.128932    0.000001
  22 H :    0.158987    0.000014
  23 C :   -0.309133   -0.001135
  24 H :    0.145891    0.000155
  25 H :    0.144954    0.000384
  26 H :    0.183469    0.000221
  27 H :    0.196315   -0.000169
  28 H :    0.152129   -0.004316
  29 H :    0.198298   -0.005759
  30 H :    0.153238    0.053552
  31 H :    0.151724    0.025421
Sum of atomic charges         :   -0.0000000

LOEWDIN ATOMIC CHARGES AND SPIN POPULATIONS
-------------------------------------------
   0 N :    0.144842    0.000640
   1 C :   -0.250580    0.000233
   2 C :   -0.443348    0.001256
   3 O :    0.056435    0.001433
   4 C :   -0.235534    0.004385
   5 C :   -0.280800    0.061615
   6 C :   -0.146244    0.759219
   7 C :   -0.360965    0.063579
   8 N :   -0.179719    0.005616
   9 H :    0.134326    0.000594
  10 H :    0.136468    0.035113
  11 H :    0.121320    0.012888
  12 H :    0.145963    0.000615
  13 H :    0.149352    0.002209
  14 H :    0.194227    0.000036
  15 C :   -0.482551    0.000166
  16 N :    0.100854    0.000961
  17 H :    0.187132    0.000029
  18 O :    0.052686    0.000165
  19 C :   -0.263161    0.000009
  20 H :    0.139320   -0.000001
  21 H :    0.122039    0.000003
  22 H :    0.137980    0.000005
  23 C :   -0.302188    0.000079
  24 H :    0.116132    0.000046
  25 H :    0.115186    0.000077
  26 H :    0.134537    0.000025
  27 H :    0.165702   -0.000104
  28 H :    0.137806   -0.000318
  29 H :    0.154730    0.000343
  30 H :    0.150523    0.033935
  31 H :    0.147529    0.015148

  Mayer bond orders larger than 0.100000
B(  0-N ,  1-C ) :   0.9286 B(  0-N , 14-H ) :   0.8779 B(  0-N , 15-C ) :   1.2098
B(  1-C ,  2-C ) :   0.9314 B(  1-C ,  4-C ) :   0.8855 B(  1-C , 27-H ) :   0.9916
B(  2-C ,  3-O ) :   1.9133 B(  2-C , 16-N ) :   1.2284 B(  4-C ,  5-C ) :   0.8579
B(  4-C , 28-H ) :   0.9914 B(  4-C , 29-H ) :   0.9677 B(  5-C ,  6-C ) :   0.9507
B(  5-C , 30-H ) :   0.9436 B(  5-C , 31-H ) :   0.9614 B(  6-C ,  7-C ) :   0.9903
B(  6-C ,  9-H ) :   0.9604 B(  7-C ,  8-N ) :   0.9569 B(  7-C , 10-H ) :   0.9398
B(  7-C , 11-H ) :   0.9889 B(  8-N , 12-H ) :   0.9352 B(  8-N , 13-H ) :   0.9293
B( 15-C , 18-O ) :   1.9193 B( 15-C , 19-C ) :   0.9111 B( 16-N , 17-H ) :   0.9184
B( 16-N , 23-C ) :   0.9027 B( 19-C , 20-H ) :   0.9549 B( 19-C , 21-H ) :   0.9854
B( 19-C , 22-H ) :   0.9666 B( 23-C , 24-H ) :   0.9687 B( 23-C , 25-H ) :   0.9684
B( 23-C , 26-H ) :   0.9625

FINAL SINGLE POINT ENERGY      -668.445303025669

DIPOLE MOMENT
-------------
                                X             Y             Z
Electronic contribution:      8.50076      -1.66611      -1.82830
Nuclear contribution   :     -8.60331       2.53703       2.34807
                        -----------------------------------------
Total Dipole Moment    :     -0.10255       0.87092       0.51977
                        -----------------------------------------
Magnitude (a.u.)       :      1.01940
Magnitude (Debye)      :      2.59111

VIBRATIONAL FREQUENCIES
-----------------------

Scaling factor for frequencies =  1.000000000  (already applied!)

   0:         0.00 cm**-1
   1:         0.00 cm**-1
   2:         0.00 cm**-1
   3:         0.00 cm**-1
   4:         0.00 cm**-1
   5:         0.00 cm**-1
   6:       -50.95 cm**-1 ***imaginary mode***
   7:        36.76 cm**-1
   8:        49.73 cm**-1
   9:        66.08 cm**-1
  10:        72.84 cm**-1
  11:        86.90 cm**-1
  12:       101.36 cm**-1
  13:       112.43 cm**-1
  14:       117.74 cm**-1
  15:       123.78 cm**-1
  16:       147.46 cm**-1
  17:       162.19 cm**-1
  18:       207.11 cm**-1
  19:       239.21 cm**-1
  20:       249.47 cm**-1
  21:       297.81 cm**-1
  22:       329.63 cm**-1
  23:       358.58 cm**-1
  24:       390.57 cm**-1
  25:       411.05 cm**-1
  26:       433.85 cm**-1
  27:       484.92 cm**-1
  28:       511.54 cm**-1
  29:       535.24 cm**-1
  30:       574.46 cm**-1
  31:       641.48 cm**-1
  32:       658.33 cm**-1
  33:       698.38 cm**-1
  34:       749.92 cm**-1
  35:       811.99 cm**-1
  36:       836.08 cm**-1
  37:       889.57 cm**-1
  38:       928.16 cm**-1
  39:       936.86 cm**-1
  40:       994.37 cm**-1
  41:      1009.45 cm**-1
  42:      1039.95 cm**-1
  43:      1047.55 cm**-1
  44:      1061.93 cm**-1
  45:      1077.76 cm**-1
  46:      1105.97 cm**-1
  47:      1117.50 cm**-1
  48:      1152.99 cm**-1
  49:      1158.35 cm**-1
  50:      1160.16 cm**-1
  51:      1169.25 cm**-1
  52:      1182.70 cm**-1
  53:      1228.23 cm**-1
  54:      1231.99 cm**-1
  55:      1254.05 cm**-1
  56:      1277.18 cm**-1
  57:      1304.07 cm**-1
  58:      1313.65 cm**-1
  59:      1333.25 cm**-1
  60:      1370.54 cm**-1
  61:      1386.83 cm**-1
  62:      1408.45 cm**-1
  63:      1415.65 cm**-1
  64:      1447.77 cm**-1
  65:      1458.19 cm**-1
  66:      1466.81 cm**-1
  67:      1474.25 cm**-1
  68:      1489.79 cm**-1
  69:      1493.91 cm**-1
  70:      1500.14 cm**-1
  71:      1507.21 cm**-1
  72:      1510.33 cm**-1
  73:      1545.36 cm**-1
  74:      1594.51 cm**-1
  75:      1647.77 cm**-1
  76:      1778.02 cm**-1
  77:      1791.22 cm**-1
  78:      2973.17 cm**-1
  79:      2981.21 cm**-1
  80:      3001.12 cm**-1
  81:      3055.30 cm**-1
  82:      3070.45 cm**-1
  83:      3077.28 cm**-1
  84:      3083.81 cm**-1
  85:      3089.06 cm**-1
  86:      3128.26 cm**-1
  87:      3142.57 cm**-1
  88:      3169.69 cm**-1
  89:      3185.13 cm**-1
  90:      3188.45 cm**-1
  91:      3190.09 cm**-1
  92:      3525.55 cm**-1
  93:      3614.28 cm**-1
  94:      3619.70 cm**-1
  95:      3658.72 cm**-1

IR SPECTRUM
-----------

 Mode   freq       eps      Int      T**2         TX        TY        TZ
       cm**-1   L/(mol*cm) km/mol    a.u.
----------------------------------------------------------------------------
  7:     36.76   0.000359    1.81  0.003046  ( 0.052069  0.018176  0.002163)
  8:     49.73   0.000129    0.65  0.000807  (-0.020139  0.017145  0.010353)
  9:     66.08   0.000186    0.94  0.000877  ( 0.028713 -0.004459 -0.005710)
 10:     72.84   0.000025    0.13  0.000108  ( 0.002233 -0.007777 -0.006491)
 11:     86.90   0.002635   13.32  0.009464  (-0.095717 -0.009803  0.014344)
 12:    101.36   0.001253    6.33  0.003858  (-0.038208 -0.048706 -0.005042)
 13:    112.43   0.000093    0.47  0.000259  (-0.012924  0.002409 -0.009261)
 14:    117.74   0.000690    3.49  0.001828  (-0.017458 -0.036278 -0.014383)
 15:    123.78   0.000024    0.12  0.000060  ( 0.006839 -0.003540 -0.000672)
 16:    147.46   0.002692   13.60  0.005697  (-0.058830  0.043948  0.017461)
 17:    162.19   0.000489    2.47  0.000941  (-0.018688 -0.024028 -0.003836)
 18:    207.11   0.000644    3.26  0.000971  ( 0.022134 -0.010798 -0.019081)
 19:    239.21   0.004658   23.54  0.006077  (-0.048106  0.052110  0.032357)
 20:    249.47   0.003330   16.83  0.004165  ( 0.044296 -0.019419 -0.042732)
 21:    297.81   0.001430    7.22  0.001498  (-0.019367  0.032794  0.006892)
 22:    329.63   0.001269    6.41  0.001201  (-0.027901  0.019398  0.006807)
 23:    358.58   0.000077    0.39  0.000067  ( 0.000411  0.001432  0.008035)
 24:    390.57   0.005036   25.45  0.004024  (-0.009611 -0.062341 -0.006722)
 25:    411.05   0.003543   17.91  0.002690  (-0.023703 -0.044037 -0.013742)
 26:    433.85   0.008007   40.46  0.005759  ( 0.073862 -0.017407  0.000786)
 27:    484.92   0.007354   37.17  0.004733  (-0.067529  0.000687  0.013119)
 28:    511.54   0.002372   11.99  0.001447  ( 0.022333  0.024000 -0.019292)
 29:    535.24   0.019919  100.66  0.011613  ( 0.105296  0.007250 -0.021761)
 30:    574.46   0.002944   14.88  0.001599  ( 0.018950  0.034557 -0.006776)
 31:    641.48   0.001945    9.83  0.000946  ( 0.017448 -0.022140 -0.012309)
 32:    658.33   0.000525    2.65  0.000249  (-0.015334 -0.000893  0.003577)
 33:    698.38   0.000236    1.19  0.000105  (-0.008957  0.002909 -0.004081)
 34:    749.92   0.000326    1.65  0.000136  (-0.004123 -0.009792 -0.004758)
 35:    811.99   0.002094   10.58  0.000805  ( 0.026065 -0.000769  0.011174)
 36:    836.08   0.024073  121.65  0.008985  (-0.058162  0.030427 -0.068385)
 37:    889.57   0.000599    3.02  0.000210  ( 0.000886  0.004221 -0.013834)
 38:    928.16   0.003787   19.14  0.001273  ( 0.016644 -0.014051  0.028266)
 39:    936.86   0.000303    1.53  0.000101  (-0.002161  0.008563  0.004785)
 40:    994.37   0.003824   19.32  0.001200  ( 0.005707 -0.034169  0.000008)
 41:   1009.45   0.001196    6.05  0.000370  ( 0.010238 -0.010455 -0.012478)
 42:   1039.95   0.000837    4.23  0.000251  ( 0.014520 -0.002789  0.005705)
 43:   1047.55   0.000675    3.41  0.000201  (-0.009946  0.003715 -0.009400)
 44:   1061.93   0.001205    6.09  0.000354  ( 0.018689  0.001421 -0.001700)
 45:   1077.76   0.001411    7.13  0.000409  (-0.006538  0.013478 -0.013568)
 46:   1105.97   0.001116    5.64  0.000315  ( 0.015890  0.005903 -0.005246)
 47:   1117.50   0.001961    9.91  0.000548  (-0.020401 -0.011310 -0.001891)
 48:   1152.99   0.000470    2.38  0.000127  (-0.007978 -0.007122  0.003589)
 49:   1158.35   0.000328    1.66  0.000088  (-0.006147 -0.005380 -0.004663)
 50:   1160.16   0.000109    0.55  0.000029  ( 0.001172 -0.000546 -0.005261)
 51:   1169.25   0.000938    4.74  0.000250  ( 0.004833  0.013103 -0.007436)
 52:   1182.70   0.007112   35.94  0.001876  (-0.001106 -0.042381  0.008894)
 53:   1228.23   0.000830    4.19  0.000211  (-0.002712  0.014038 -0.002520)
 54:   1231.99   0.001072    5.42  0.000272  ( 0.003395 -0.016028 -0.001798)
 55:   1254.05   0.009019   45.58  0.002244  ( 0.001686  0.047258  0.002844)
 56:   1277.18   0.003962   20.02  0.000968  ( 0.023816  0.019415  0.004882)
 57:   1304.07   0.004743   23.97  0.001135  ( 0.014993 -0.029254 -0.007376)
 58:   1313.65   0.001227    6.20  0.000292  ( 0.001193 -0.017029 -0.000421)
 59:   1333.25   0.001719    8.69  0.000402  ( 0.004471 -0.017350 -0.009018)
 60:   1370.54   0.003943   19.93  0.000898  (-0.005359 -0.028642 -0.006980)
 61:   1386.83   0.000581    2.94  0.000131  (-0.002674 -0.009270 -0.006133)
 62:   1408.45   0.009100   45.99  0.002016  ( 0.015699 -0.041940  0.003301)
 63:   1415.65   0.001330    6.72  0.000293  ( 0.016385  0.001334 -0.004794)
 64:   1447.77   0.003088   15.60  0.000666  (-0.003464  0.009799 -0.023612)
 65:   1458.19   0.001554    7.85  0.000333  ( 0.012901  0.007991  0.010116)
 66:   1466.81   0.000182    0.92  0.000039  ( 0.004396  0.000815  0.004318)
 67:   1474.25   0.003940   19.91  0.000834  (-0.010601 -0.023573 -0.012882)
 68:   1489.79   0.010325   52.18  0.002163  ( 0.010459 -0.036126 -0.027357)
 69:   1493.91   0.001590    8.03  0.000332  (-0.013427  0.008126 -0.009263)
 70:   1500.14   0.000608    3.07  0.000127  (-0.007432 -0.000919  0.008393)
 71:   1507.21   0.003192   16.13  0.000661  (-0.018206 -0.018024  0.002126)
 72:   1510.33   0.013785   69.66  0.002848  ( 0.000534 -0.052528 -0.009423)
 73:   1545.36   0.092036  465.11  0.018585  (-0.039759  0.130281  0.005600)
 74:   1594.51   0.032290  163.18  0.006320  (-0.018308 -0.074590  0.020512)
 75:   1647.77   0.008037   40.62  0.001522  ( 0.023533  0.030950 -0.003230)
 76:   1778.02   0.086374  436.50  0.015160  ( 0.002826  0.004397  0.123014)
 77:   1791.22   0.017157   86.71  0.002989  (-0.017204  0.049137 -0.016693)
 78:   2973.17   0.002053   10.38  0.000215  (-0.003459 -0.012918 -0.006055)
 79:   2981.21   0.011308   57.14  0.001184  ( 0.012047  0.005489  0.031755)
 80:   3001.12   0.005888   29.76  0.000612  ( 0.012367 -0.021275  0.002588)
 81:   3055.30   0.000722    3.65  0.000074  ( 0.000602 -0.007201  0.004644)
 82:   3070.45   0.002783   14.06  0.000283  (-0.005218  0.007063 -0.014342)
 83:   3077.28   0.009899   50.02  0.001004  (-0.003062 -0.031534  0.000250)
 84:   3083.81   0.003634   18.36  0.000368  ( 0.004431  0.015497 -0.010389)
 85:   3089.06   0.000553    2.80  0.000056  (-0.001905  0.003454 -0.006350)
 86:   3128.26   0.001960    9.91  0.000196  ( 0.001877  0.013682 -0.002198)
 87:   3142.57   0.002993   15.13  0.000297  ( 0.016716  0.001347 -0.003999)
 88:   3169.69   0.000622    3.14  0.000061  (-0.004631 -0.000742  0.006262)
 89:   3185.13   0.001096    5.54  0.000107  (-0.000363 -0.003999 -0.009552)
 90:   3188.45   0.001548    7.82  0.000151  (-0.002933  0.003266 -0.011498)
 91:   3190.09   0.000006    0.03  0.000001  ( 0.000108 -0.000446  0.000632)
 92:   3525.55   0.000060    0.31  0.000005  ( 0.000168 -0.002305  0.000040)
 93:   3614.28   0.000913    4.62  0.000079  ( 0.004973 -0.004231 -0.006019)
 94:   3619.70   0.019554   98.82  0.001686  ( 0.003786  0.023549  0.033421)
 95:   3658.72   0.008177   41.32  0.000697  (-0.002229  0.009632 -0.024489)

--------------------------
THERMOCHEMISTRY AT 298.15K
--------------------------

Temperature         ... 298.15 K
Pressure            ... 1.00 atm
Total Mass          ... 200.26 AMU

Throughout the following assumptions are being made:
  (1) The electronic state is orbitally nondegenerate
      but the spin degeneracy is treated
  (2) There are no thermally accessible electronically excited states
  (3) Hindered rotations indicated by low frequency modes are not
      treated as such but are treated as vibrations and this may
      cause some error
  (4) All equations used are the standard statistical mechanics
      equations for an ideal gas
  (5) All vibrations are strictly harmonic

freq.      36.76  E(vib)   ...       0.54
freq.      49.73  E(vib)   ...       0.52
freq.      66.08  E(vib)   ...       0.50
freq.      72.84  E(vib)   ...       0.49
freq.      86.90  E(vib)   ...       0.48
freq.     101.36  E(vib)   ...       0.46
freq.     112.43  E(vib)   ...       0.45
freq.     117.74  E(vib)   ...       0.44
freq.     123.78  E(vib)   ...       0.43
freq.     147.46  E(vib)   ...       0.41
freq.     162.19  E(vib)   ...       0.39
freq.     207.11  E(vib)   ...       0.34
freq.     239.21  E(vib)   ...       0.31
freq.     249.47  E(vib)   ...       0.31
freq.     297.81  E(vib)   ...       0.27
freq.     329.63  E(vib)   ...       0.24
freq.     358.58  E(vib)   ...       0.22
freq.     390.57  E(vib)   ...       0.20
freq.     411.05  E(vib)   ...       0.19
freq.     433.85  E(vib)   ...       0.17
freq.     484.92  E(vib)   ...       0.15
freq.     511.54  E(vib)   ...       0.14
freq.     535.24  E(vib)   ...       0.13
freq.     574.46  E(vib)   ...       0.11
freq.     641.48  E(vib)   ...       0.09
freq.     658.33  E(vib)   ...       0.08
freq.     698.38  E(vib)   ...       0.07
freq.     749.92  E(vib)   ...       0.06
freq.     811.99  E(vib)   ...       0.05
freq.     836.08  E(vib)   ...       0.04
freq.     889.57  E(vib)   ...       0.04
freq.     928.16  E(vib)   ...       0.03
freq.     936.86  E(vib)   ...       0.03
freq.     994.37  E(vib)   ...       0.02
freq.    1009.45  E(vib)   ...       0.02
freq.    1039.95  E(vib)   ...       0.02
freq.    1047.55  E(vib)   ...       0.02
freq.    1061.93  E(vib)   ...       0.02
freq.    1077.76  E(vib)   ...       0.02
freq.    1105.97  E(vib)   ...       0.02
freq.    1117.50  E(vib)   ...       0.01
freq.    1152.99  E(vib)   ...       0.01
freq.    1158.35  E(vib)   ...       0.01
freq.    1160.16  E(vib)   ...       0.01
freq.    1169.25  E(vib)   ...       0.01
freq.    1182.70  E(vib)   ...       0.01
freq.    1228.23  E(vib)   ...       0.01
freq.    1231.99  E(vib)   ...       0.01
freq.    1254.05  E(vib)   ...       0.01
freq.    1277.18  E(vib)   ...       0.01
freq.    1304.07  E(vib)   ...       0.01
freq.    1313.65  E(vib)   ...       0.01
freq.    1333.25  E(vib)   ...       0.01
freq.    1370.54  E(vib)   ...       0.01
freq.    1386.83  E(vib)   ...       0.00
freq.    1408.45  E(vib)   ...       0.00
freq.    1415.65  E(vib)   ...       0.00
freq.    1447.77  E(vib)   ...       0.00
freq.    1458.19  E(vib)   ...       0.00
freq.    1466.81  E(vib)   ...       0.00
freq.    1474.25  E(vib)   ...       0.00
freq.    1489.79  E(vib)   ...       0.00
freq.    1493.91  E(vib)   ...       0.00
freq.    1500.14  E(vib)   ...       0.00
freq.    1507.21  E(vib)   ...       0.00
freq.    1510.33  E(vib)   ...       0.00
freq.    1545.36  E(vib)   ...       0.00
freq.    1594.51  E(vib)   ...       0.00
freq.    1647.77  E(vib)   ...       0.00
freq.    1778.02  E(vib)   ...       0.00
freq.    1791.22  E(vib)   ...       0.00
freq.    2973.17  E(vib)   ...       0.00
freq.    2981.21  E(vib)   ...       0.00
freq.    3001.12  E(vib)   ...       0.00
freq.    3055.30  E(vib)   ...       0.00
freq.    3070.45  E(vib)   ...       0.00
freq.    3077.28  E(vib)   ...       0.00
freq.    3083.81  E(vib)   ...       0.00
freq.    3089.06  E(vib)   ...       0.00
freq.    3128.26  E(vib)   ...       0.00
freq.    3142.57  E(vib)   ...       0.00
freq.    3169.69  E(vib)   ...       0.00
freq.    3185.13  E(vib)   ...       0.00
freq.    3188.45  E(vib)   ...       0.00
freq.    3190.09  E(vib)   ...       0.00
freq.    3525.55  E(vib)   ...       0.00
freq.    3614.28  E(vib)   ...       0.00
freq.    3619.70  E(vib)   ...       0.00
freq.    3658.72  E(vib)   ...       0.00

------------
INNER ENERGY
------------

The inner energy is: U= E(el) + E(ZPE) + E(vib) + E(rot) + E(trans)
    E(el)   - is the total energy from the electronic structure calculation
              = E(kin-el) + E(nuc-el) + E(el-el) + E(nuc-nuc)
    E(ZPE)  - the the zero temperature vibrational energy from the frequency calculation
    E(vib)  - the the finite temperature correction to E(ZPE) due to population
              of excited vibrational states
    E(rot)  - is the rotational thermal energy
    E(trans)- is the translational thermal energy

Summary of contributions to the inner energy U:
Electronic energy                ...   -668.44530303 Eh
Zero point energy                ...      0.27682561 Eh     173.71 kcal/mol
Thermal vibrational correction   ...      0.01385683 Eh       8.70 kcal/mol
Thermal rotational correction    ...      0.00141627 Eh       0.89 kcal/mol
Thermal translational correction ...      0.00141627 Eh       0.89 kcal/mol
-----------------------------------------------------------------------
Total thermal energy                   -668.15178804 Eh

Summary of corrections to the electronic energy:
(perhaps to be used in another calculation)
Total thermal correction                  0.01668938 Eh      10.47 kcal/mol
Non-thermal (ZPE) correction              0.27682561 Eh     173.71 kcal/mol
-----------------------------------------------------------------------
Total correction                          0.29351499 Eh     184.18 kcal/mol

--------
ENTHALPY
--------

The enthalpy is H = U + kB*T
                kB is Boltzmann's constant
Total free energy                 ...   -668.15178804 Eh
Thermal Enthalpy correction       ...      0.00094421 Eh       0.59 kcal/mol
-----------------------------------------------------------------------
Total Enthalpy                    ...   -668.15084383 Eh

Note: Only C1 symmetry has been detected, increase convergence thresholds
      if your molecule has a higher symmetry. Symmetry factor of 1.0 is
      used for the rotational entropy correction.

Note: Rotational entropy computed according to Herzberg
Infrared and Raman Spectra, Chapter V,1, Van Nostrand Reinhold, 1945
Point Group:  C1, Symmetry Number:   1
Rotational constants in cm-1:     0.019842     0.013825     0.009244

                             ****ORCA TERMINATED NORMALLY****
TOTAL RUN TIME: 0 days 0 hours 30 minutes 51 seconds 576 msec
