                         Program Version 5.0.4 -  RELEASE  -
|  1> ! B3LYP EPR-II OPT
|  2> %pal nprocs 16 end
|  3> *XYZFile 0 2 model.xyz
|  4>
|  5>                          ****END OF INPUT****
 Total Charge           Charge          ....    0
 Multiplicity           Mult            ....    2
 Number of Electrons    NEL             ....  109
FINAL SINGLE POINT ENERGY      -668.216391503971
FINAL SINGLE POINT ENERGY      -668.217750251830
FINAL SINGLE POINT ENERGY      -668.217837843912
FINAL SINGLE POINT ENERGY      -668.217872784019
FINAL SINGLE POINT ENERGY      -668.217887844436
FINAL SINGLE POINT ENERGY      -668.217896788147
FINAL SINGLE POINT ENERGY      -668.217905232470
FINAL SINGLE POINT ENERGY      -668.217908629663
FINAL SINGLE POINT ENERGY      -668.217912216281
                    ***********************HURRAY********************

CARTESIAN COORDINATES (ANGSTROEM)
---------------------------------
  N      1.415789   -0.943031    0.180509
  C      1.081352    0.271600   -0.545650
  C      1.464003    1.460128    0.361271
  O      1.698910    1.308220    1.562239
  C     -0.411325    0.322765   -0.970272
  C     -1.409881    0.345927    0.203549
  C     -2.840291    0.364917   -0.250063
  C     -3.966459    0.010439    0.674169
  N     -5.202052   -0.278508   -0.079904
  H     -3.103541    0.892426   -1.166315
  H     -4.185812    0.866089    1.338080
  H     -3.643340   -0.810859    1.340038
  H     -5.957536   -0.484713    0.568090
  H     -5.062418   -1.117510   -0.636764
  H      1.612304   -0.815330    1.165268
  C      1.729450   -2.109523   -0.461645
  N      1.499350    2.672351   -0.263746
  H      1.310230    2.701879   -1.254078
  O      1.654198   -2.231347   -1.685145
  C      2.171274   -3.261141    0.436795
  H      3.189543   -3.546543    0.157884
  H      2.143221   -3.018250    1.502281
  H      1.522996   -4.119893    0.243943
  C      1.793679    3.921627    0.429930
  H      2.644817    4.430651   -0.033442
  H      0.927888    4.592783    0.421564
  H      2.043235    3.677486    1.462573
  H      1.686487    0.299804   -1.460066
  H     -0.571677    1.205118   -1.603719
  H     -0.595503   -0.553527   -1.599124
  H     -1.202766    1.227762    0.837464
  H     -1.234291   -0.523991    0.850152

 Multiplicity           Mult            ....    2
 Number of Electrons    NEL             ....  109
 Basis Dimension        Dim             ....  364

ORBITAL ENERGIES
----------------
                 SPIN UP ORBITALS
  NO   OCC          E(Eh)            E(eV)
   0   1.0000     -19.123111      -520.3663
   1   1.0000     -19.100170      -519.7420
   2   1.0000     -14.373213      -391.1150
   3   1.0000     -14.349732      -390.4761
   4   1.0000     -14.307170      -389.3179
   5   1.0000     -10.304504      -280.3998
   6   1.0000     -10.288377      -279.9610
   7   1.0000     -10.239479      -278.6304
   8   1.0000     -10.225874      -278.2602
   9   1.0000     -10.210337      -277.8374
  10   1.0000     -10.192382      -277.3488
  11   1.0000     -10.189276      -277.2643
  12   1.0000     -10.188029      -277.2304
  13   1.0000     -10.186038      -277.1762
  14   1.0000      -1.046084       -28.4654
  15   1.0000      -1.022241       -27.8166
  16   1.0000      -0.932517       -25.3751
  17   1.0000      -0.916777       -24.9468
  18   1.0000      -0.875747       -23.8303
  19   1.0000      -0.801126       -21.7997
  20   1.0000      -0.759934       -20.6789
  21   1.0000      -0.727847       -19.8057
  22   1.0000      -0.711980       -19.3740
  23   1.0000      -0.671040       -18.2599
  24   1.0000      -0.620890       -16.8953
  25   1.0000      -0.598444       -16.2845
  26   1.0000      -0.575917       -15.6715
  27   1.0000      -0.562120       -15.2961
  28   1.0000      -0.538164       -14.6442
  29   1.0000      -0.487233       -13.2583
  30   1.0000      -0.482192       -13.1211
  31   1.0000      -0.473068       -12.8728
  32   1.0000      -0.467504       -12.7214
  33   1.0000      -0.458978       -12.4894
  34   1.0000      -0.456261       -12.4155
  35   1.0000      -0.446585       -12.1522
  36   1.0000      -0.437557       -11.9065
  37   1.0000      -0.426028       -11.5928
  38   1.0000      -0.416978       -11.3465
  39   1.0000      -0.402463       -10.9516
  40   1.0000      -0.398489       -10.8434
  41   1.0000      -0.395472       -10.7613
  42   1.0000      -0.390115       -10.6156
  43   1.0000      -0.376833       -10.2541
  44   1.0000      -0.374187       -10.1822
  45   1.0000      -0.362489        -9.8638
  46   1.0000      -0.354038        -9.6339
  47   1.0000      -0.343806        -9.3554
  48   1.0000      -0.330678        -8.9982
  49   1.0000      -0.271765        -7.3951
  50   1.0000      -0.270235        -7.3535
  51   1.0000      -0.250229        -6.8091
  52   1.0000      -0.246183        -6.6990
  53   1.0000      -0.238957        -6.5024
  54   1.0000      -0.186831        -5.0839
  55   0.0000       0.005955         0.1620
  56   0.0000       0.011099         0.3020
  57   0.0000       0.022269         0.6060
  58   0.0000       0.027697         0.7537
  59   0.0000       0.030782         0.8376

                 SPIN DOWN ORBITALS
  NO   OCC          E(Eh)            E(eV)
   0   1.0000     -19.123048      -520.3646
   1   1.0000     -19.100170      -519.7420
   2   1.0000     -14.373194      -391.1145
   3   1.0000     -14.349722      -390.4758
   4   1.0000     -14.306843      -389.3090
   5   1.0000     -10.304515      -280.4001
   6   1.0000     -10.288378      -279.9610
   7   1.0000     -10.239477      -278.6303
   8   1.0000     -10.225875      -278.2602
   9   1.0000     -10.211227      -277.8616
  10   1.0000     -10.192084      -277.3407
  11   1.0000     -10.188897      -277.2540
  12   1.0000     -10.186038      -277.1762
  13   1.0000     -10.175622      -276.8928
  14   1.0000      -1.046001       -28.4631
  15   1.0000      -1.022236       -27.8164
  16   1.0000      -0.932466       -25.3737
  17   1.0000      -0.916734       -24.9456
  18   1.0000      -0.873618       -23.7724
  19   1.0000      -0.797379       -21.6978
  20   1.0000      -0.752778       -20.4841
  21   1.0000      -0.727635       -19.8000
  22   1.0000      -0.706071       -19.2132
  23   1.0000      -0.669043       -18.2056
  24   1.0000      -0.619380       -16.8542
  25   1.0000      -0.598429       -16.2841
  26   1.0000      -0.569513       -15.4972
  27   1.0000      -0.551151       -14.9976
  28   1.0000      -0.538061       -14.6414
  29   1.0000      -0.485403       -13.2085
  30   1.0000      -0.479518       -13.0483
  31   1.0000      -0.472691       -12.8626
  32   1.0000      -0.465541       -12.6680
  33   1.0000      -0.458386       -12.4733
  34   1.0000      -0.453589       -12.3428
  35   1.0000      -0.445879       -12.1330
  36   1.0000      -0.435550       -11.8519
  37   1.0000      -0.425252       -11.5717
  38   1.0000      -0.413412       -11.2495
  39   1.0000      -0.402228       -10.9452
  40   1.0000      -0.396576       -10.7914
  41   1.0000      -0.392207       -10.6725
  42   1.0000      -0.387992       -10.5578
  43   1.0000      -0.375349       -10.2138
  44   1.0000      -0.370404       -10.0792
  45   1.0000      -0.359811        -9.7909
  46   1.0000      -0.348937        -9.4951
  47   1.0000      -0.340926        -9.2771
  48   1.0000      -0.328124        -8.9287
  49   1.0000      -0.271641        -7.3917
  50   1.0000      -0.270075        -7.3491
  51   1.0000      -0.250075        -6.8049
  52   1.0000      -0.246176        -6.6988
  53   1.0000      -0.237218        -6.4550
  54   0.0000      -0.045594        -1.2407
  55   0.0000       0.006923         0.1884
  56   0.0000       0.011382         0.3097
  57   0.0000       0.022548         0.6136
  58   0.0000       0.027824         0.7571

MULLIKEN ATOMIC CHARGES AND SPIN POPULATIONS
--------------------------------------------
   0 N :   -0.118824    0.000444
   1 C :   -0.129193   -0.002986
   2 C :    0.084035    0.005948
   3 O :   -0.332853    0.000893
   4 C :   -0.293593    0.014401
   5 C :   -0.249200   -0.064393
   6 C :   -0.127836    1.002825
   7 C :   -0.295748   -0.057814
   8 N :   -0.469604    0.005372
   9 H :    0.137324   -0.045617
  10 H :    0.158351    0.052919
  11 H :    0.136731    0.018071
  12 H :    0.208845    0.001604
  13 H :    0.218678    0.002460
  14 H :    0.252079   -0.000033
  15 C :    0.169768   -0.000095
  16 N :   -0.091697   -0.000172
  17 H :    0.230775   -0.000015
  18 O :   -0.324939    0.000005
  19 C :   -0.553646    0.000042
  20 H :    0.186009    0.000000
  21 H :    0.148528    0.000000
  22 H :    0.185556    0.000002
  23 C :   -0.457448   -0.000206
  24 H :    0.162182    0.000026
  25 H :    0.163511    0.000080
  26 H :    0.200146    0.000005
  27 H :    0.167395   -0.000144
  28 H :    0.131877   -0.000502
  29 H :    0.190110   -0.001176
  30 H :    0.154315    0.052135
  31 H :    0.158366    0.015923
Sum of atomic charges         :   -0.0000000

LOEWDIN ATOMIC CHARGES AND SPIN POPULATIONS
-------------------------------------------
   0 N :    0.062943    0.000580
   1 C :   -0.048994    0.000570
   2 C :   -0.094824    0.001572
   3 O :   -0.196441    0.002196
   4 C :   -0.054468    0.010603
   5 C :   -0.082952    0.008443
   6 C :   -0.061619    0.826554
   7 C :   -0.070880    0.010715
   8 N :   -0.096032    0.009383
   9 H :    0.045360    0.009222
  10 H :    0.047664    0.043881
  11 H :    0.028888    0.016378
  12 H :    0.048394    0.000446
  13 H :    0.053258    0.001015
  14 H :    0.090210   -0.000006
  15 C :   -0.104359    0.000067
  16 N :    0.041868    0.000764
  17 H :    0.079686    0.000013
  18 O :   -0.197475    0.000003
  19 C :   -0.043086    0.000027
  20 H :    0.054502   -0.000000
  21 H :    0.033491    0.000004
  22 H :    0.053833   -0.000001
  23 C :    0.011211    0.000061
  24 H :    0.032001    0.000021
  25 H :    0.031633    0.000030
  26 H :    0.055010    0.000016
  27 H :    0.067707   -0.000001
  28 H :    0.042273    0.000036
  29 H :    0.060081    0.000009
  30 H :    0.057871    0.043199
  31 H :    0.053244    0.014202

  Mayer bond orders larger than 0.100000
B(  0-N ,  1-C ) :   1.0209 B(  0-N , 14-H ) :   0.8931 B(  0-N , 15-C ) :   1.2050
B(  1-C ,  2-C ) :   0.9001 B(  1-C ,  4-C ) :   0.9268 B(  1-C , 18-O ) :   0.1453
B(  1-C , 27-H ) :   0.9693 B(  2-C ,  3-O ) :   1.8697 B(  2-C , 16-N ) :   1.1855
B(  4-C ,  5-C ) :   0.9609 B(  4-C , 28-H ) :   0.9808 B(  4-C , 29-H ) :   0.9608
B(  5-C ,  6-C ) :   0.9767 B(  5-C , 30-H ) :   0.9456 B(  5-C , 31-H ) :   0.9680
B(  6-C ,  7-C ) :   0.9694 B(  6-C ,  9-H ) :   0.9906 B(  7-C ,  8-N ) :   1.0102
B(  7-C , 10-H ) :   0.9432 B(  7-C , 11-H ) :   0.9474 B(  8-N , 12-H ) :   0.9447
B(  8-N , 13-H ) :   0.9466 B( 15-C , 18-O ) :   1.8623 B( 15-C , 19-C ) :   0.8943
B( 16-N , 17-H ) :   0.9298 B( 16-N , 23-C ) :   0.9696 B( 19-C , 20-H ) :   0.9578
B( 19-C , 21-H ) :   0.9759 B( 19-C , 22-H ) :   0.9601 B( 23-C , 24-H ) :   0.9619
B( 23-C , 25-H ) :   0.9576 B( 23-C , 26-H ) :   0.9433

FINAL SINGLE POINT ENERGY      -668.217914773084

DIPOLE MOMENT
-------------
                                X             Y             Z
Electronic contribution:      8.51089      -1.50065      -1.81349
Nuclear contribution   :     -8.62599       2.35973       2.30063
                        -----------------------------------------
Total Dipole Moment    :     -0.11510       0.85908       0.48714
                        -----------------------------------------
Magnitude (a.u.)       :      0.99427
Magnitude (Debye)      :      2.52724

Rotational constants in cm-1:     0.019579     0.013194     0.008916
Rotational constants in MHz :   586.965856   395.536530   267.287973

                             ****ORCA TERMINATED NORMALLY****
TOTAL RUN TIME: 0 days 0 hours 5 minutes 30 seconds 328 msec
