                         Program Version 5.0.4 -  RELEASE  -
|  1> ! B3LYP EPR-II AUTOAUX
|  2> %pal nprocs 16 end
|  3> *XYZFile -1 2 opt.xyz
|  4> %EPRNMR
|  5>         GTENSOR   TRUE
|  6>         NUCLEI    = 1,4,6,7,9,10,12,13,14,16,17,18 {SHIFT, AISO, ADIP, AORB}
|  7>         ORI       GIAO
|  8> END
|  9>
| 10>                          ****END OF INPUT****

CARTESIAN COORDINATES (ANGSTROEM)
---------------------------------
  N     -3.789395   -0.103541    0.090809
  C     -2.442507    0.235908    0.120459
  C     -1.860158   -0.150739    1.428586
  O     -2.564210   -0.786096    2.260222
  C     -1.722794    0.902715   -1.017971
  H     -0.696742    0.523149   -1.052244
  H     -2.233395    0.623602   -1.941211
  C     -1.643025    2.458491   -0.941484
  H     -1.586107    2.855550   -1.962689
  H     -2.558577    2.876492   -0.508922
  C     -0.420817    3.072371   -0.177190
  O      0.440083    2.257130    0.305937
  O     -0.387173    4.319261   -0.147320
  H     -4.034499   -0.542754    0.981170
  C     -4.753981   -0.007340   -0.881635
  N     -0.569770    0.200045    1.648308
  H     -0.147314    0.969700    1.055834
  O     -4.582813    0.445702   -2.017616
  C     -6.131549   -0.515630   -0.445226
  H     -6.837962    0.319594   -0.489124
  H     -6.467754   -1.269879   -1.162974
  H     -6.146240   -0.942118    0.561818
  C      0.023268   -0.038754    2.952908
  H      0.013549   -1.105942    3.199456
  H      1.055321    0.318366    2.927042
  H     -0.515544    0.488869    3.751621

 Total Charge           Charge          ....   -1
 Multiplicity           Mult            ....    2
 Number of Electrons    NEL             ....  107
 Basis Dimension        Dim             ....  322

ORBITAL ENERGIES
----------------
                 SPIN UP ORBITALS
  NO   OCC          E(Eh)            E(eV)
   0   1.0000     -19.008771      -517.2550
   1   1.0000     -18.983414      -516.5650
   2   1.0000     -18.928802      -515.0789
   3   1.0000     -18.921376      -514.8768
   4   1.0000     -14.266916      -388.2225
   5   1.0000     -14.211364      -386.7109
   6   1.0000     -10.193920      -277.3907
   7   1.0000     -10.162029      -276.5229
   8   1.0000     -10.123722      -275.4805
   9   1.0000     -10.120522      -275.3934
  10   1.0000     -10.101853      -274.8854
  11   1.0000     -10.093890      -274.6687
  12   1.0000     -10.062403      -273.8119
  13   1.0000     -10.044236      -273.3176
  14   1.0000      -0.929641       -25.2968
  15   1.0000      -0.900864       -24.5138
  16   1.0000      -0.858556       -23.3625
  17   1.0000      -0.828428       -22.5427
  18   1.0000      -0.784563       -21.3490
  19   1.0000      -0.770249       -20.9595
  20   1.0000      -0.674041       -18.3416
  21   1.0000      -0.635267       -17.2865
  22   1.0000      -0.596801       -16.2398
  23   1.0000      -0.561078       -15.2677
  24   1.0000      -0.512525       -13.9465
  25   1.0000      -0.459697       -12.5090
  26   1.0000      -0.438817       -11.9408
  27   1.0000      -0.418186       -11.3794
  28   1.0000      -0.374932       -10.2024
  29   1.0000      -0.358858        -9.7650
  30   1.0000      -0.349401        -9.5077
  31   1.0000      -0.337806        -9.1922
  32   1.0000      -0.333021        -9.0620
  33   1.0000      -0.325988        -8.8706
  34   1.0000      -0.309070        -8.4102
  35   1.0000      -0.306468        -8.3394
  36   1.0000      -0.294616        -8.0169
  37   1.0000      -0.292699        -7.9647
  38   1.0000      -0.286292        -7.7904
  39   1.0000      -0.268935        -7.3181
  40   1.0000      -0.265120        -7.2143
  41   1.0000      -0.254883        -6.9357
  42   1.0000      -0.238027        -6.4770
  43   1.0000      -0.235482        -6.4078
  44   1.0000      -0.220342        -5.9958
  45   1.0000      -0.198884        -5.4119
  46   1.0000      -0.195480        -5.3193
  47   1.0000      -0.152330        -4.1451
  48   1.0000      -0.143599        -3.9075
  49   1.0000      -0.131582        -3.5805
  50   1.0000      -0.090808        -2.4710
  51   1.0000      -0.084890        -2.3100
  52   1.0000      -0.071975        -1.9585
  53   1.0000      -0.052732        -1.4349
  54   0.0000       0.100967         2.7474
  55   0.0000       0.121328         3.3015
  56   0.0000       0.126925         3.4538
  57   0.0000       0.146870         3.9965
  58   0.0000       0.169098         4.6014

                 SPIN DOWN ORBITALS
  NO   OCC          E(Eh)            E(eV)
   0   1.0000     -19.005948      -517.1781
   1   1.0000     -18.981579      -516.5150
   2   1.0000     -18.928794      -515.0787
   3   1.0000     -18.921172      -514.8713
   4   1.0000     -14.266464      -388.2102
   5   1.0000     -14.209407      -386.6576
   6   1.0000     -10.192899      -277.3629
   7   1.0000     -10.162544      -276.5369
   8   1.0000     -10.120544      -275.3940
   9   1.0000     -10.113623      -275.2057
  10   1.0000     -10.101992      -274.8892
  11   1.0000     -10.094005      -274.6719
  12   1.0000     -10.062978      -273.8276
  13   1.0000     -10.043210      -273.2896
  14   1.0000      -0.924540       -25.1580
  15   1.0000      -0.897096       -24.4112
  16   1.0000      -0.858330       -23.3564
  17   1.0000      -0.822698       -22.3868
  18   1.0000      -0.781807       -21.2741
  19   1.0000      -0.768863       -20.9218
  20   1.0000      -0.665675       -18.1140
  21   1.0000      -0.633424       -17.2363
  22   1.0000      -0.593045       -16.1376
  23   1.0000      -0.555140       -15.1061
  24   1.0000      -0.510158       -13.8821
  25   1.0000      -0.455830       -12.4038
  26   1.0000      -0.436252       -11.8710
  27   1.0000      -0.415038       -11.2938
  28   1.0000      -0.373244       -10.1565
  29   1.0000      -0.351969        -9.5776
  30   1.0000      -0.347595        -9.4586
  31   1.0000      -0.333426        -9.0730
  32   1.0000      -0.330302        -8.9880
  33   1.0000      -0.321997        -8.7620
  34   1.0000      -0.307383        -8.3643
  35   1.0000      -0.301774        -8.2117
  36   1.0000      -0.293331        -7.9819
  37   1.0000      -0.285735        -7.7753
  38   1.0000      -0.282317        -7.6822
  39   1.0000      -0.267758        -7.2861
  40   1.0000      -0.259432        -7.0595
  41   1.0000      -0.247440        -6.7332
  42   1.0000      -0.235417        -6.4060
  43   1.0000      -0.234597        -6.3837
  44   1.0000      -0.216246        -5.8843
  45   1.0000      -0.195124        -5.3096
  46   1.0000      -0.183199        -4.9851
  47   1.0000      -0.149675        -4.0729
  48   1.0000      -0.139492        -3.7958
  49   1.0000      -0.119800        -3.2599
  50   1.0000      -0.089979        -2.4484
  51   1.0000      -0.084387        -2.2963
  52   1.0000      -0.068455        -1.8627
  53   0.0000       0.036226         0.9858
  54   0.0000       0.101253         2.7552
  55   0.0000       0.126818         3.4509
  56   0.0000       0.136571         3.7163
  57   0.0000       0.147415         4.0114

MULLIKEN ATOMIC CHARGES AND SPIN POPULATIONS
--------------------------------------------
   0 N :    0.008348    0.011214
   1 C :    0.112876    0.662120
   2 C :    0.024148   -0.022550
   3 O :   -0.452002    0.067987
   4 C :   -0.350739   -0.039543
   5 H :    0.163401    0.010255
   6 H :    0.142659    0.007859
   7 C :   -0.299255    0.037976
   8 H :    0.135909    0.003740
   9 H :    0.157117   -0.001870
  10 C :    0.087082   -0.000277
  11 O :   -0.431799    0.000325
  12 O :   -0.415183    0.006700
  13 H :    0.234512   -0.002018
  14 C :    0.091991    0.061154
  15 N :   -0.070842    0.086713
  16 H :    0.260905   -0.002261
  17 O :   -0.321283    0.102170
  18 C :   -0.567484   -0.005015
  19 H :    0.176805    0.006296
  20 H :    0.172592    0.006029
  21 H :    0.148071   -0.000140
  22 C :   -0.470557   -0.007890
  23 H :    0.155481    0.004150
  24 H :    0.149719    0.000203
  25 H :    0.157528    0.006673
Sum of atomic charges         :   -1.0000000

LOEWDIN ATOMIC CHARGES AND SPIN POPULATIONS
-------------------------------------------
   0 N :    0.122857    0.035436
   1 C :   -0.037466    0.539680
   2 C :   -0.119189    0.022053
   3 O :   -0.281873    0.066040
   4 C :   -0.064892    0.008529
   5 H :    0.057150    0.007916
   6 H :    0.055773    0.005645
   7 C :   -0.068096    0.037894
   8 H :    0.049042    0.002816
   9 H :    0.050749   -0.000197
  10 C :   -0.193519    0.000382
  11 O :   -0.318071    0.000250
  12 O :   -0.284469    0.006581
  13 H :    0.096586    0.001108
  14 C :   -0.117855    0.071057
  15 N :    0.034269    0.078085
  16 H :    0.076945    0.001438
  17 O :   -0.199542    0.097693
  18 C :   -0.057507    0.000260
  19 H :    0.047774    0.004849
  20 H :    0.045831    0.004599
  21 H :    0.030749   -0.000218
  22 C :   -0.016572    0.000068
  23 H :    0.029243    0.003151
  24 H :    0.032254    0.000066
  25 H :    0.029829    0.004818

  Mayer bond orders larger than 0.100000
B(  0-N ,  1-C ) :   1.2111 B(  0-N , 13-H ) :   0.8636 B(  0-N , 14-C ) :   1.1911
B(  1-C ,  2-C ) :   1.0819 B(  1-C ,  4-C ) :   0.9954 B(  2-C ,  3-O ) :   1.6358
B(  2-C , 15-N ) :   1.2540 B(  3-O , 13-H ) :   0.1011 B(  4-C ,  5-H ) :   0.9710
B(  4-C ,  6-H ) :   0.9642 B(  4-C ,  7-C ) :   0.9057 B(  7-C ,  8-H ) :   0.9834
B(  7-C ,  9-H ) :   0.9813 B(  7-C , 10-C ) :   0.9105 B( 10-C , 11-O ) :   1.4437
B( 10-C , 12-O ) :   1.7078 B( 11-O , 16-H ) :   0.2082 B( 14-C , 17-O ) :   1.8539
B( 14-C , 18-C ) :   0.8838 B( 15-N , 16-H ) :   0.7623 B( 15-N , 22-C ) :   0.9693
B( 18-C , 19-H ) :   0.9637 B( 18-C , 20-H ) :   0.9669 B( 18-C , 21-H ) :   0.9773
B( 22-C , 23-H ) :   0.9624 B( 22-C , 24-H ) :   0.9717 B( 22-C , 25-H ) :   0.9545

FINAL SINGLE POINT ENERGY      -722.330647725311

DIPOLE MOMENT
-------------
                                X             Y             Z
Electronic contribution:      1.76549       2.46342      -1.87781
Nuclear contribution   :     -3.94160      -5.17142       2.29074
                        -----------------------------------------
Total Dipole Moment    :     -2.17611      -2.70800       0.41294
                        -----------------------------------------
Magnitude (a.u.)       :      3.49846
Magnitude (Debye)      :      8.89238

Rotational constants in cm-1:     0.027874     0.015600     0.010730
Rotational constants in MHz :   835.636366   467.681417   321.684726

CHEMICAL SHIELDING SUMMARY (ppm)  --  Orbital contribution
----------------------------------------------------------

  Nucleus  Element    Isotropic     Anisotropy
  -------  -------  ------------   ------------
      0       N           85.952        123.201
      3       O           22.961        518.985
      5       H           29.107          5.013
      6       H           28.211          7.513
      8       H           29.701          6.986
      9       H           30.056          4.605
     11       O           21.550        344.518
     12       O          -18.506        307.437
     13       H           22.229         10.314
     15       N          131.490         90.477
     16       H           18.057         23.862
     17       O          -77.263       -489.690

                             ****ORCA TERMINATED NORMALLY****
TOTAL RUN TIME: 0 days 0 hours 4 minutes 54 seconds 861 msec
