                         Program Version 5.0.4 -  RELEASE  -
|  1> ! M062X def2-TZVP OPT FREQ
|  2> %pal nprocs 16 end
|  3> *XYZFile -1 2 opt.xyz
|  4>
|  5>                          ****END OF INPUT****
 Total Charge           Charge          ....   -1
 Multiplicity           Mult            ....    2
 Number of Electrons    NEL             ....  107
FINAL SINGLE POINT ENERGY      -722.560137765350
FINAL SINGLE POINT ENERGY      -722.559394700347
FINAL SINGLE POINT ENERGY      -722.551227037320
FINAL SINGLE POINT ENERGY      -722.562160749953
FINAL SINGLE POINT ENERGY      -722.562500667081
FINAL SINGLE POINT ENERGY      -722.561973272323
FINAL SINGLE POINT ENERGY      -722.562633775832
FINAL SINGLE POINT ENERGY      -722.562214842717
FINAL SINGLE POINT ENERGY      -722.563653483802
FINAL SINGLE POINT ENERGY      -722.563655595757
FINAL SINGLE POINT ENERGY      -722.563687052084
FINAL SINGLE POINT ENERGY      -722.563672340913
FINAL SINGLE POINT ENERGY      -722.563321845331
FINAL SINGLE POINT ENERGY      -722.563651983365
FINAL SINGLE POINT ENERGY      -722.563635105710
FINAL SINGLE POINT ENERGY      -722.563575246715
FINAL SINGLE POINT ENERGY      -722.563611352186
                    ***********************HURRAY********************

CARTESIAN COORDINATES (ANGSTROEM)
---------------------------------
  N     -3.757254   -0.113856    0.130421
  C     -2.422014    0.220790    0.163861
  C     -1.823470   -0.184696    1.442387
  O     -2.489525   -0.853808    2.254256
  C     -1.700066    0.835960   -0.984415
  H     -0.662342    0.500144   -0.950671
  H     -2.155645    0.465901   -1.902067
  C     -1.693048    2.374489   -1.012720
  H     -1.582189    2.708786   -2.046633
  H     -2.648715    2.775277   -0.671958
  C     -0.557462    3.070937   -0.216789
  O      0.302438    2.324580    0.338831
  O     -0.581878    4.302951   -0.228136
  H     -4.016641   -0.606737    0.981308
  C     -4.716387    0.131762   -0.804332
  N     -0.559650    0.204609    1.658378
  H     -0.174794    1.002093    1.077735
  O     -4.539489    0.753186   -1.835468
  C     -6.080714   -0.436385   -0.461887
  H     -6.785134    0.390403   -0.369371
  H     -6.409738   -1.058293   -1.294052
  H     -6.089863   -1.022834    0.455460
  C      0.028519   -0.046560    2.950026
  H      0.061763   -1.117178    3.160429
  H      1.039039    0.356815    2.950943
  H     -0.545844    0.425812    3.753025

 Multiplicity           Mult            ....    2
 Number of Electrons    NEL             ....  107
 Basis Dimension        Dim             ....  506

ORBITAL ENERGIES
----------------
                 SPIN UP ORBITALS
  NO   OCC          E(Eh)            E(eV)
   0   1.0000     -19.493213      -530.4373
   1   1.0000     -19.465249      -529.6763
   2   1.0000     -19.409771      -528.1667
   3   1.0000     -19.398082      -527.8486
   4   1.0000     -14.683805      -399.5666
   5   1.0000     -14.623638      -397.9294
   6   1.0000     -10.545304      -286.9523
   7   1.0000     -10.509468      -285.9772
   8   1.0000     -10.471857      -284.9537
   9   1.0000     -10.464754      -284.7604
  10   1.0000     -10.453730      -284.4604
  11   1.0000     -10.444593      -284.2118
  12   1.0000     -10.411755      -283.3183
  13   1.0000     -10.388943      -282.6975
  14   1.0000      -1.066904       -29.0319
  15   1.0000      -1.033465       -28.1220
  16   1.0000      -0.992063       -26.9954
  17   1.0000      -0.948056       -25.7979
  18   1.0000      -0.904779       -24.6203
  19   1.0000      -0.890657       -24.2360
  20   1.0000      -0.781411       -21.2633
  21   1.0000      -0.738493       -20.0954
  22   1.0000      -0.696695       -18.9580
  23   1.0000      -0.653866       -17.7926
  24   1.0000      -0.604984       -16.4624
  25   1.0000      -0.546576       -14.8731
  26   1.0000      -0.527564       -14.3557
  27   1.0000      -0.505291       -13.7497
  28   1.0000      -0.460453       -12.5296
  29   1.0000      -0.445197       -12.1144
  30   1.0000      -0.435438       -11.8489
  31   1.0000      -0.419451       -11.4138
  32   1.0000      -0.410623       -11.1736
  33   1.0000      -0.408251       -11.1091
  34   1.0000      -0.389000       -10.5852
  35   1.0000      -0.382190       -10.3999
  36   1.0000      -0.377154       -10.2629
  37   1.0000      -0.368194       -10.0191
  38   1.0000      -0.360807        -9.8180
  39   1.0000      -0.345302        -9.3962
  40   1.0000      -0.340075        -9.2539
  41   1.0000      -0.332784        -9.0555
  42   1.0000      -0.314147        -8.5484
  43   1.0000      -0.309407        -8.4194
  44   1.0000      -0.293869        -7.9966
  45   1.0000      -0.270569        -7.3626
  46   1.0000      -0.268992        -7.3196
  47   1.0000      -0.234226        -6.3736
  48   1.0000      -0.220554        -6.0016
  49   1.0000      -0.200717        -5.4618
  50   1.0000      -0.161554        -4.3961
  51   1.0000      -0.161031        -4.3819
  52   1.0000      -0.147502        -4.0137
  53   1.0000      -0.103699        -2.8218
  54   0.0000       0.156608         4.2615
  55   0.0000       0.157040         4.2733
  56   0.0000       0.193255         5.2587
  57   0.0000       0.204640         5.5685
  58   0.0000       0.209775         5.7083

                 SPIN DOWN ORBITALS
  NO   OCC          E(Eh)            E(eV)
   0   1.0000     -19.491183      -530.3821
   1   1.0000     -19.463825      -529.6376
   2   1.0000     -19.409799      -528.1675
   3   1.0000     -19.398003      -527.8465
   4   1.0000     -14.683618      -399.5615
   5   1.0000     -14.622360      -397.8947
   6   1.0000     -10.545166      -286.9486
   7   1.0000     -10.509965      -285.9907
   8   1.0000     -10.466819      -284.8166
   9   1.0000     -10.464771      -284.7609
  10   1.0000     -10.453811      -284.4627
  11   1.0000     -10.444670      -284.2139
  12   1.0000     -10.412210      -283.3306
  13   1.0000     -10.388237      -282.6783
  14   1.0000      -1.061679       -28.8898
  15   1.0000      -1.029258       -28.0075
  16   1.0000      -0.991943       -26.9922
  17   1.0000      -0.941397       -25.6167
  18   1.0000      -0.903096       -24.5745
  19   1.0000      -0.887786       -24.1579
  20   1.0000      -0.772282       -21.0149
  21   1.0000      -0.736379       -20.0379
  22   1.0000      -0.691993       -18.8301
  23   1.0000      -0.647212       -17.6115
  24   1.0000      -0.601764       -16.3748
  25   1.0000      -0.542607       -14.7651
  26   1.0000      -0.522999       -14.2315
  27   1.0000      -0.501735       -13.6529
  28   1.0000      -0.457650       -12.4533
  29   1.0000      -0.436566       -11.8796
  30   1.0000      -0.432358       -11.7651
  31   1.0000      -0.413997       -11.2654
  32   1.0000      -0.406547       -11.0627
  33   1.0000      -0.402851       -10.9621
  34   1.0000      -0.386125       -10.5070
  35   1.0000      -0.377578       -10.2744
  36   1.0000      -0.375982       -10.2310
  37   1.0000      -0.361508        -9.8371
  38   1.0000      -0.356373        -9.6974
  39   1.0000      -0.341375        -9.2893
  40   1.0000      -0.335486        -9.1290
  41   1.0000      -0.324349        -8.8260
  42   1.0000      -0.311502        -8.4764
  43   1.0000      -0.307146        -8.3579
  44   1.0000      -0.286762        -7.8032
  45   1.0000      -0.267151        -7.2696
  46   1.0000      -0.253696        -6.9034
  47   1.0000      -0.230845        -6.2816
  48   1.0000      -0.216126        -5.8811
  49   1.0000      -0.185362        -5.0440
  50   1.0000      -0.161318        -4.3897
  51   1.0000      -0.159865        -4.3501
  52   1.0000      -0.145114        -3.9487
  53   0.0000       0.070696         1.9237
  54   0.0000       0.155308         4.2261
  55   0.0000       0.173437         4.7195
  56   0.0000       0.192459         5.2371
  57   0.0000       0.204783         5.5724

MULLIKEN ATOMIC CHARGES AND SPIN POPULATIONS
--------------------------------------------
   0 N :   -0.305820    0.009353
   1 C :    0.029164    0.718460
   2 C :    0.362486   -0.041768
   3 O :   -0.534975    0.071379
   4 C :   -0.288469   -0.057100
   5 H :    0.170681    0.007974
   6 H :    0.148621    0.012323
   7 C :   -0.324200    0.033270
   8 H :    0.116850    0.004559
   9 H :    0.134498   -0.001803
  10 C :    0.346772   -0.001003
  11 O :   -0.579900   -0.000933
  12 O :   -0.489062    0.002729
  13 H :    0.259220   -0.003463
  14 C :    0.369071    0.048075
  15 N :   -0.365565    0.085427
  16 H :    0.326959   -0.001503
  17 O :   -0.408257    0.106534
  18 C :   -0.463163   -0.006378
  19 H :    0.147071    0.005961
  20 H :    0.141848    0.004941
  21 H :    0.124548    0.000641
  22 C :   -0.309844   -0.007782
  23 H :    0.125870    0.003951
  24 H :    0.137871    0.000207
  25 H :    0.127728    0.005951
Sum of atomic charges         :   -1.0000000

LOEWDIN ATOMIC CHARGES AND SPIN POPULATIONS
-------------------------------------------
   0 N :    0.190939    0.057195
   1 C :   -0.138595    0.490352
   2 C :   -0.470138    0.063970
   3 O :   -0.040740    0.060672
   4 C :   -0.249242    0.041753
   5 H :    0.151932    0.005366
   6 H :    0.146823    0.006818
   7 C :   -0.246752    0.030671
   8 H :    0.141142    0.002788
   9 H :    0.140504    0.000615
  10 C :   -0.658865    0.000609
  11 O :   -0.102629   -0.000895
  12 O :   -0.051315    0.002614
  13 H :    0.208135    0.000730
  14 C :   -0.477687    0.061175
  15 N :    0.098275    0.063858
  16 H :    0.186880    0.001335
  17 O :    0.058976    0.087705
  18 C :   -0.276848    0.005051
  19 H :    0.131898    0.003523
  20 H :    0.130342    0.002979
  21 H :    0.118386   -0.000144
  22 C :   -0.326706    0.005585
  23 H :    0.110545    0.002243
  24 H :    0.115058    0.000023
  25 H :    0.109683    0.003408

  Mayer bond orders larger than 0.100000
B(  0-N ,  1-C ) :   1.0972 B(  0-N , 13-H ) :   0.8675 B(  0-N , 14-C ) :   1.1724
B(  1-C ,  2-C ) :   1.1301 B(  1-C ,  4-C ) :   0.9535 B(  2-C ,  3-O ) :   1.7152
B(  2-C , 15-N ) :   1.2937 B(  4-C ,  5-H ) :   0.9853 B(  4-C ,  6-H ) :   0.9607
B(  4-C ,  7-C ) :   0.7921 B(  7-C ,  8-H ) :   0.9714 B(  7-C ,  9-H ) :   0.9630
B(  7-C , 10-C ) :   0.9497 B( 10-C , 11-O ) :   1.5569 B( 10-C , 12-O ) :   1.9298
B( 11-O , 16-H ) :   0.1998 B( 14-C , 17-O ) :   1.9309 B( 14-C , 18-C ) :   0.9093
B( 15-N , 16-H ) :   0.7428 B( 15-N , 22-C ) :   0.9671 B( 18-C , 19-H ) :   0.9632
B( 18-C , 20-H ) :   0.9661 B( 18-C , 21-H ) :   0.9852 B( 22-C , 23-H ) :   0.9723
B( 22-C , 24-H ) :   0.9740 B( 22-C , 25-H ) :   0.9733

FINAL SINGLE POINT ENERGY      -722.563611634379

DIPOLE MOMENT
-------------
                                X             Y             Z
Electronic contribution:      1.43278       2.78056      -1.68497
Nuclear contribution   :     -3.61194      -5.69171       1.92180
                        -----------------------------------------
Total Dipole Moment    :     -2.17916      -2.91114       0.23683
                        -----------------------------------------
Magnitude (a.u.)       :      3.64412
Magnitude (Debye)      :      9.26261

VIBRATIONAL FREQUENCIES
-----------------------

Scaling factor for frequencies =  1.000000000  (already applied!)

   0:         0.00 cm**-1
   1:         0.00 cm**-1
   2:         0.00 cm**-1
   3:         0.00 cm**-1
   4:         0.00 cm**-1
   5:         0.00 cm**-1
   6:        30.61 cm**-1
   7:        43.92 cm**-1
   8:        55.71 cm**-1
   9:        81.12 cm**-1
  10:       109.04 cm**-1
  11:       121.41 cm**-1
  12:       132.48 cm**-1
  13:       147.65 cm**-1
  14:       156.91 cm**-1
  15:       176.54 cm**-1
  16:       225.50 cm**-1
  17:       237.97 cm**-1
  18:       278.88 cm**-1
  19:       312.91 cm**-1
  20:       368.40 cm**-1
  21:       377.67 cm**-1
  22:       404.48 cm**-1
  23:       522.73 cm**-1
  24:       530.82 cm**-1
  25:       547.73 cm**-1
  26:       608.86 cm**-1
  27:       619.86 cm**-1
  28:       647.79 cm**-1
  29:       710.43 cm**-1
  30:       760.52 cm**-1
  31:       820.30 cm**-1
  32:       823.39 cm**-1
  33:       872.90 cm**-1
  34:       920.99 cm**-1
  35:       965.37 cm**-1
  36:       977.52 cm**-1
  37:      1005.99 cm**-1
  38:      1024.57 cm**-1
  39:      1043.78 cm**-1
  40:      1050.74 cm**-1
  41:      1088.74 cm**-1
  42:      1149.54 cm**-1
  43:      1173.83 cm**-1
  44:      1185.26 cm**-1
  45:      1204.27 cm**-1
  46:      1250.41 cm**-1
  47:      1295.92 cm**-1
  48:      1316.71 cm**-1
  49:      1337.33 cm**-1
  50:      1387.91 cm**-1
  51:      1401.73 cm**-1
  52:      1403.03 cm**-1
  53:      1411.62 cm**-1
  54:      1448.98 cm**-1
  55:      1458.05 cm**-1
  56:      1475.26 cm**-1
  57:      1484.25 cm**-1
  58:      1486.83 cm**-1
  59:      1494.32 cm**-1
  60:      1508.05 cm**-1
  61:      1574.88 cm**-1
  62:      1679.93 cm**-1
  63:      1684.51 cm**-1
  64:      1721.77 cm**-1
  65:      1770.23 cm**-1
  66:      2658.63 cm**-1
  67:      3047.82 cm**-1
  68:      3080.50 cm**-1
  69:      3082.65 cm**-1
  70:      3092.28 cm**-1
  71:      3107.64 cm**-1
  72:      3131.92 cm**-1
  73:      3146.22 cm**-1
  74:      3159.21 cm**-1
  75:      3167.60 cm**-1
  76:      3173.91 cm**-1
  77:      3505.12 cm**-1

IR SPECTRUM
-----------

 Mode   freq       eps      Int      T**2         TX        TY        TZ
       cm**-1   L/(mol*cm) km/mol    a.u.
----------------------------------------------------------------------------
  6:     30.61   0.000428    2.16  0.004359  (-0.057772 -0.027217  0.016743)
  7:     43.92   0.000330    1.67  0.002343  ( 0.013254 -0.045073  0.011653)
  8:     55.71   0.001157    5.85  0.006481  ( 0.031780 -0.047035 -0.057088)
  9:     81.12   0.000928    4.69  0.003572  (-0.031640  0.043689  0.025723)
 10:    109.04   0.000805    4.07  0.002303  ( 0.038170  0.027807  0.008540)
 11:    121.41   0.000106    0.53  0.000272  ( 0.008332  0.014188 -0.000890)
 12:    132.48   0.000929    4.70  0.002189  ( 0.023582  0.006064 -0.039950)
 13:    147.65   0.000339    1.71  0.000716  (-0.005802  0.001083 -0.026102)
 14:    156.91   0.003449   17.43  0.006859  (-0.012736  0.054500 -0.061044)
 15:    176.54   0.001156    5.84  0.002044  (-0.028160  0.034463  0.007950)
 16:    225.50   0.008814   44.54  0.012197  ( 0.056017  0.088690 -0.034537)
 17:    237.97   0.002041   10.32  0.002677  ( 0.046261  0.021748  0.007990)
 18:    278.88   0.002540   12.84  0.002843  ( 0.029931 -0.026999  0.034898)
 19:    312.91   0.000271    1.37  0.000270  ( 0.013344 -0.005224  0.008049)
 20:    368.40   0.002688   13.58  0.002277  (-0.009537  0.035264 -0.030694)
 21:    377.67   0.000755    3.81  0.000624  ( 0.021218 -0.008797  0.009800)
 22:    404.48   0.001386    7.01  0.001070  (-0.018161 -0.009375 -0.025532)
 23:    522.73   0.004651   23.51  0.002777  (-0.045800 -0.019464  0.017326)
 24:    530.82   0.003286   16.61  0.001932  (-0.026167 -0.034258 -0.008590)
 25:    547.73   0.001058    5.35  0.000603  ( 0.014741 -0.008763  0.017572)
 26:    608.86   0.001314    6.64  0.000673  (-0.005468 -0.024562 -0.006334)
 27:    619.86   0.000917    4.63  0.000461  ( 0.016840  0.001506 -0.013252)
 28:    647.79   0.001620    8.19  0.000781  ( 0.022182  0.016799 -0.002525)
 29:    710.43   0.001918    9.69  0.000842  ( 0.014313 -0.012321  0.022038)
 30:    760.52   0.002564   12.96  0.001052  (-0.010421  0.029899  0.007034)
 31:    820.30   0.004905   24.79  0.001866  (-0.020548 -0.037870 -0.003081)
 32:    823.39   0.010697   54.06  0.004054  ( 0.011712 -0.059132 -0.020499)
 33:    872.90   0.010529   53.21  0.003764  (-0.048851 -0.033662 -0.015641)
 34:    920.99   0.000963    4.87  0.000326  ( 0.012468 -0.013049 -0.000720)
 35:    965.37   0.004007   20.25  0.001295  ( 0.031976 -0.016517  0.000100)
 36:    977.52   0.002599   13.14  0.000830  ( 0.004513  0.020746 -0.019468)
 37:   1005.99   0.019076   96.40  0.005917  (-0.050817  0.057742  0.000936)
 38:   1024.57   0.001574    7.95  0.000479  (-0.020790 -0.002482 -0.006403)
 39:   1043.78   0.001231    6.22  0.000368  (-0.015973 -0.002945 -0.010216)
 40:   1050.74   0.001104    5.58  0.000328  (-0.005585  0.015021  0.008422)
 41:   1088.74   0.002786   14.08  0.000799  (-0.024129 -0.014567  0.002038)
 42:   1149.54   0.001900    9.60  0.000516  ( 0.016659  0.015390 -0.001154)
 43:   1173.83   0.000149    0.75  0.000040  (-0.003483  0.004687 -0.002337)
 44:   1185.26   0.004239   21.42  0.001116  ( 0.013567  0.023651 -0.019301)
 45:   1204.27   0.002611   13.20  0.000677  (-0.014385 -0.019799  0.008815)
 46:   1250.41   0.000248    1.26  0.000062  (-0.006213 -0.002746 -0.003981)
 47:   1295.92   0.000823    4.16  0.000198  ( 0.009894 -0.008049 -0.005949)
 48:   1316.71   0.002448   12.37  0.000580  ( 0.013236  0.011996 -0.016156)
 49:   1337.33   0.001732    8.75  0.000404  ( 0.005040 -0.014484  0.013000)
 50:   1387.91   0.015324   77.44  0.003445  (-0.040015 -0.001830 -0.042906)
 51:   1401.73   0.004060   20.52  0.000904  ( 0.028462  0.006959  0.006738)
 52:   1403.03   0.011055   55.87  0.002459  ( 0.013763 -0.023263  0.041574)
 53:   1411.62   0.112256  567.30  0.024816  ( 0.129189  0.003985  0.090058)
 54:   1448.98   0.002360   11.93  0.000508  ( 0.008287 -0.009421  0.018731)
 55:   1458.05   0.002349   11.87  0.000503  ( 0.014247  0.003478  0.016960)
 56:   1475.26   0.001213    6.13  0.000257  (-0.004084  0.011357  0.010534)
 57:   1484.25   0.009469   47.85  0.001991  (-0.008465 -0.003544 -0.043664)
 58:   1486.83   0.001672    8.45  0.000351  ( 0.014379 -0.011669 -0.002835)
 59:   1494.32   0.002566   12.97  0.000536  ( 0.006920  0.015040 -0.016179)
 60:   1508.05   0.000754    3.81  0.000156  ( 0.003097  0.012064 -0.000976)
 61:   1574.88   0.067729  342.27  0.013420  (-0.107850 -0.024335 -0.034592)
 62:   1679.93   0.100666  508.72  0.018700  ( 0.037680  0.104705 -0.079478)
 63:   1684.51   0.041315  208.79  0.007654  (-0.069410 -0.003429 -0.053145)
 64:   1721.77   0.119222  602.50  0.021609  ( 0.019357 -0.144556  0.018366)
 65:   1770.23   0.070365  355.60  0.012404  (-0.045631  0.043918 -0.091615)
 66:   2658.63   0.331099  1673.24  0.038864  ( 0.075695  0.155599 -0.094461)
 67:   3047.82   0.013599   68.72  0.001392  ( 0.018326  0.003176  0.032349)
 68:   3080.50   0.002835   14.32  0.000287  ( 0.015790  0.006024 -0.001234)
 69:   3082.65   0.004141   20.93  0.000419  (-0.005417  0.016481 -0.010873)
 70:   3092.28   0.001987   10.04  0.000201  (-0.004085  0.008958  0.010180)
 71:   3107.64   0.005993   30.29  0.000602  (-0.015594  0.018811  0.002185)
 72:   3131.92   0.003379   17.07  0.000337  ( 0.011893 -0.001534 -0.013888)
 73:   3146.22   0.000499    2.52  0.000050  (-0.005311 -0.001166 -0.004466)
 74:   3159.21   0.000995    5.03  0.000098  ( 0.001639 -0.008930 -0.003978)
 75:   3167.60   0.002602   13.15  0.000256  (-0.013875 -0.007850  0.001476)
 76:   3173.91   0.002521   12.74  0.000248  (-0.003358  0.006178 -0.014088)
 77:   3505.12   0.024215  122.37  0.002156  ( 0.011926 -0.017780  0.041201)

--------------------------
THERMOCHEMISTRY AT 298.15K
--------------------------

Temperature         ... 298.15 K
Pressure            ... 1.00 atm
Total Mass          ... 200.19 AMU

Throughout the following assumptions are being made:
  (1) The electronic state is orbitally nondegenerate
      but the spin degeneracy is treated
  (2) There are no thermally accessible electronically excited states
  (3) Hindered rotations indicated by low frequency modes are not
      treated as such but are treated as vibrations and this may
      cause some error
  (4) All equations used are the standard statistical mechanics
      equations for an ideal gas
  (5) All vibrations are strictly harmonic

freq.      30.61  E(vib)   ...       0.55
freq.      43.92  E(vib)   ...       0.53
freq.      55.71  E(vib)   ...       0.52
freq.      81.12  E(vib)   ...       0.48
freq.     109.04  E(vib)   ...       0.45
freq.     121.41  E(vib)   ...       0.44
freq.     132.48  E(vib)   ...       0.42
freq.     147.65  E(vib)   ...       0.41
freq.     156.91  E(vib)   ...       0.40
freq.     176.54  E(vib)   ...       0.38
freq.     225.50  E(vib)   ...       0.33
freq.     237.97  E(vib)   ...       0.32
freq.     278.88  E(vib)   ...       0.28
freq.     312.91  E(vib)   ...       0.25
freq.     368.40  E(vib)   ...       0.21
freq.     377.67  E(vib)   ...       0.21
freq.     404.48  E(vib)   ...       0.19
freq.     522.73  E(vib)   ...       0.13
freq.     530.82  E(vib)   ...       0.13
freq.     547.73  E(vib)   ...       0.12
freq.     608.86  E(vib)   ...       0.10
freq.     619.86  E(vib)   ...       0.09
freq.     647.79  E(vib)   ...       0.09
freq.     710.43  E(vib)   ...       0.07
freq.     760.52  E(vib)   ...       0.06
freq.     820.30  E(vib)   ...       0.05
freq.     823.39  E(vib)   ...       0.05
freq.     872.90  E(vib)   ...       0.04
freq.     920.99  E(vib)   ...       0.03
freq.     965.37  E(vib)   ...       0.03
freq.     977.52  E(vib)   ...       0.03
freq.    1005.99  E(vib)   ...       0.02
freq.    1024.57  E(vib)   ...       0.02
freq.    1043.78  E(vib)   ...       0.02
freq.    1050.74  E(vib)   ...       0.02
freq.    1088.74  E(vib)   ...       0.02
freq.    1149.54  E(vib)   ...       0.01
freq.    1173.83  E(vib)   ...       0.01
freq.    1185.26  E(vib)   ...       0.01
freq.    1204.27  E(vib)   ...       0.01
freq.    1250.41  E(vib)   ...       0.01
freq.    1295.92  E(vib)   ...       0.01
freq.    1316.71  E(vib)   ...       0.01
freq.    1337.33  E(vib)   ...       0.01
freq.    1387.91  E(vib)   ...       0.00
freq.    1401.73  E(vib)   ...       0.00
freq.    1403.03  E(vib)   ...       0.00
freq.    1411.62  E(vib)   ...       0.00
freq.    1448.98  E(vib)   ...       0.00
freq.    1458.05  E(vib)   ...       0.00
freq.    1475.26  E(vib)   ...       0.00
freq.    1484.25  E(vib)   ...       0.00
freq.    1486.83  E(vib)   ...       0.00
freq.    1494.32  E(vib)   ...       0.00
freq.    1508.05  E(vib)   ...       0.00
freq.    1574.88  E(vib)   ...       0.00
freq.    1679.93  E(vib)   ...       0.00
freq.    1684.51  E(vib)   ...       0.00
freq.    1721.77  E(vib)   ...       0.00
freq.    1770.23  E(vib)   ...       0.00
freq.    2658.63  E(vib)   ...       0.00
freq.    3047.82  E(vib)   ...       0.00
freq.    3080.50  E(vib)   ...       0.00
freq.    3082.65  E(vib)   ...       0.00
freq.    3092.28  E(vib)   ...       0.00
freq.    3107.64  E(vib)   ...       0.00
freq.    3131.92  E(vib)   ...       0.00
freq.    3146.22  E(vib)   ...       0.00
freq.    3159.21  E(vib)   ...       0.00
freq.    3167.60  E(vib)   ...       0.00
freq.    3173.91  E(vib)   ...       0.00
freq.    3505.12  E(vib)   ...       0.00

------------
INNER ENERGY
------------

The inner energy is: U= E(el) + E(ZPE) + E(vib) + E(rot) + E(trans)
    E(el)   - is the total energy from the electronic structure calculation
              = E(kin-el) + E(nuc-el) + E(el-el) + E(nuc-nuc)
    E(ZPE)  - the the zero temperature vibrational energy from the frequency calculation
    E(vib)  - the the finite temperature correction to E(ZPE) due to population
              of excited vibrational states
    E(rot)  - is the rotational thermal energy
    E(trans)- is the translational thermal energy

Summary of contributions to the inner energy U:
Electronic energy                ...   -722.56361163 Eh
Zero point energy                ...      0.20608840 Eh     129.32 kcal/mol
Thermal vibrational correction   ...      0.01206857 Eh       7.57 kcal/mol
Thermal rotational correction    ...      0.00141627 Eh       0.89 kcal/mol
Thermal translational correction ...      0.00141627 Eh       0.89 kcal/mol
-----------------------------------------------------------------------
Total thermal energy                   -722.34262212 Eh

Summary of corrections to the electronic energy:
(perhaps to be used in another calculation)
Total thermal correction                  0.01490112 Eh       9.35 kcal/mol
Non-thermal (ZPE) correction              0.20608840 Eh     129.32 kcal/mol
-----------------------------------------------------------------------
Total correction                          0.22098952 Eh     138.67 kcal/mol

--------
ENTHALPY
--------

The enthalpy is H = U + kB*T
                kB is Boltzmann's constant
Total free energy                 ...   -722.34262212 Eh
Thermal Enthalpy correction       ...      0.00094421 Eh       0.59 kcal/mol
-----------------------------------------------------------------------
Total Enthalpy                    ...   -722.34167791 Eh

Note: Only C1 symmetry has been detected, increase convergence thresholds
      if your molecule has a higher symmetry. Symmetry factor of 1.0 is
      used for the rotational entropy correction.

Note: Rotational entropy computed according to Herzberg
Infrared and Raman Spectra, Chapter V,1, Van Nostrand Reinhold, 1945
Point Group:  C1, Symmetry Number:   1
Rotational constants in cm-1:     0.027251     0.016780     0.011118

Vibrational entropy computed according to the QRRHO of S. Grimme
Chem.Eur.J. 2012 18 9955

-------
ENTROPY
-------

The entropy contributions are T*S = T*(S(el)+S(vib)+S(rot)+S(trans))
     S(el)   - electronic entropy
     S(vib)  - vibrational entropy
     S(rot)  - rotational entropy
     S(trans)- translational entropy
The entropies will be listed as multiplied by the temperature to get
units of energy

Electronic entropy                ...      0.00065446 Eh      0.41 kcal/mol

                             ****ORCA TERMINATED NORMALLY****
TOTAL RUN TIME: 0 days 0 hours 27 minutes 58 seconds 623 msec
