                         Program Version 5.0.4 -  RELEASE  -
|  1> ! B3LYP EPR-II OPT
|  2> %pal nprocs 16 end
|  3> *XYZFile -1 2 model.xyz
|  4>
|  5>                          ****END OF INPUT****
 Total Charge           Charge          ....   -1
 Multiplicity           Mult            ....    2
 Number of Electrons    NEL             ....  107
FINAL SINGLE POINT ENERGY      -722.328526867593
FINAL SINGLE POINT ENERGY      -722.322928968594
FINAL SINGLE POINT ENERGY      -722.324912392430
FINAL SINGLE POINT ENERGY      -722.329637522142
FINAL SINGLE POINT ENERGY      -722.326841365674
FINAL SINGLE POINT ENERGY      -722.330706045438
FINAL SINGLE POINT ENERGY      -722.328980018113
FINAL SINGLE POINT ENERGY      -722.330999262265
FINAL SINGLE POINT ENERGY      -722.331029613394
FINAL SINGLE POINT ENERGY      -722.331049133022
FINAL SINGLE POINT ENERGY      -722.331063517442
FINAL SINGLE POINT ENERGY      -722.331070586426
FINAL SINGLE POINT ENERGY      -722.331080077868
FINAL SINGLE POINT ENERGY      -722.331092920134
FINAL SINGLE POINT ENERGY      -722.331101776685
FINAL SINGLE POINT ENERGY      -722.331106186551
                    ***********************HURRAY********************

CARTESIAN COORDINATES (ANGSTROEM)
---------------------------------
  N     -3.789395   -0.103541    0.090809
  C     -2.442507    0.235908    0.120459
  C     -1.860158   -0.150739    1.428586
  O     -2.564210   -0.786096    2.260222
  C     -1.722794    0.902715   -1.017971
  H     -0.696742    0.523149   -1.052244
  H     -2.233395    0.623602   -1.941211
  C     -1.643025    2.458491   -0.941484
  H     -1.586107    2.855550   -1.962689
  H     -2.558577    2.876492   -0.508922
  C     -0.420817    3.072371   -0.177190
  O      0.440083    2.257130    0.305937
  O     -0.387173    4.319261   -0.147320
  H     -4.034499   -0.542754    0.981170
  C     -4.753981   -0.007340   -0.881635
  N     -0.569770    0.200045    1.648308
  H     -0.147314    0.969700    1.055834
  O     -4.582813    0.445702   -2.017616
  C     -6.131549   -0.515630   -0.445226
  H     -6.837962    0.319594   -0.489124
  H     -6.467754   -1.269879   -1.162974
  H     -6.146240   -0.942118    0.561818
  C      0.023268   -0.038754    2.952908
  H      0.013549   -1.105942    3.199456
  H      1.055321    0.318366    2.927042
  H     -0.515544    0.488869    3.751621

 Multiplicity           Mult            ....    2
 Number of Electrons    NEL             ....  107
 Basis Dimension        Dim             ....  322

ORBITAL ENERGIES
----------------
                 SPIN UP ORBITALS
  NO   OCC          E(Eh)            E(eV)
   0   1.0000     -19.008731      -517.2539
   1   1.0000     -18.983385      -516.5642
   2   1.0000     -18.928658      -515.0750
   3   1.0000     -18.921187      -514.8717
   4   1.0000     -14.266869      -388.2213
   5   1.0000     -14.211298      -386.7091
   6   1.0000     -10.193875      -277.3894
   7   1.0000     -10.162011      -276.5224
   8   1.0000     -10.123728      -275.4806
   9   1.0000     -10.120491      -275.3926
  10   1.0000     -10.101759      -274.8828
  11   1.0000     -10.093807      -274.6664
  12   1.0000     -10.062381      -273.8113
  13   1.0000     -10.044233      -273.3175
  14   1.0000      -0.929662       -25.2974
  15   1.0000      -0.900901       -24.5148
  16   1.0000      -0.858547       -23.3623
  17   1.0000      -0.828435       -22.5429
  18   1.0000      -0.784553       -21.3488
  19   1.0000      -0.770236       -20.9592
  20   1.0000      -0.674040       -18.3416
  21   1.0000      -0.635262       -17.2864
  22   1.0000      -0.596800       -16.2397
  23   1.0000      -0.561065       -15.2674
  24   1.0000      -0.512538       -13.9469
  25   1.0000      -0.459693       -12.5089
  26   1.0000      -0.438811       -11.9407
  27   1.0000      -0.418173       -11.3791
  28   1.0000      -0.374917       -10.2020
  29   1.0000      -0.358853        -9.7649
  30   1.0000      -0.349404        -9.5078
  31   1.0000      -0.337814        -9.1924
  32   1.0000      -0.333005        -9.0615
  33   1.0000      -0.325987        -8.8706
  34   1.0000      -0.309073        -8.4103
  35   1.0000      -0.306467        -8.3394
  36   1.0000      -0.294620        -8.0170
  37   1.0000      -0.292694        -7.9646
  38   1.0000      -0.286300        -7.7906
  39   1.0000      -0.268924        -7.3178
  40   1.0000      -0.265128        -7.2145
  41   1.0000      -0.254899        -6.9361
  42   1.0000      -0.238037        -6.4773
  43   1.0000      -0.235471        -6.4075
  44   1.0000      -0.220354        -5.9961
  45   1.0000      -0.198913        -5.4127
  46   1.0000      -0.195489        -5.3195
  47   1.0000      -0.152338        -4.1453
  48   1.0000      -0.143635        -3.9085
  49   1.0000      -0.131629        -3.5818
  50   1.0000      -0.090777        -2.4702
  51   1.0000      -0.084884        -2.3098
  52   1.0000      -0.071944        -1.9577
  53   1.0000      -0.052763        -1.4358
  54   0.0000       0.101271         2.7557
  55   0.0000       0.121319         3.3013
  56   0.0000       0.127238         3.4623
  57   0.0000       0.147117         4.0032
  58   0.0000       0.169317         4.6074

                 SPIN DOWN ORBITALS
  NO   OCC          E(Eh)            E(eV)
   0   1.0000     -19.005890      -517.1766
   1   1.0000     -18.981530      -516.5137
   2   1.0000     -18.928650      -515.0747
   3   1.0000     -18.920985      -514.8662
   4   1.0000     -14.266437      -388.2095
   5   1.0000     -14.209349      -386.6560
   6   1.0000     -10.192861      -277.3618
   7   1.0000     -10.162537      -276.5367
   8   1.0000     -10.120514      -275.3932
   9   1.0000     -10.113616      -275.2055
  10   1.0000     -10.101897      -274.8866
  11   1.0000     -10.093922      -274.6696
  12   1.0000     -10.062962      -273.8271
  13   1.0000     -10.043205      -273.2895
  14   1.0000      -0.924549       -25.1583
  15   1.0000      -0.897116       -24.4118
  16   1.0000      -0.858322       -23.3561
  17   1.0000      -0.822716       -22.3872
  18   1.0000      -0.781799       -21.2738
  19   1.0000      -0.768853       -20.9216
  20   1.0000      -0.665670       -18.1138
  21   1.0000      -0.633423       -17.2363
  22   1.0000      -0.593040       -16.1374
  23   1.0000      -0.555130       -15.1059
  24   1.0000      -0.510173       -13.8825
  25   1.0000      -0.455830       -12.4038
  26   1.0000      -0.436251       -11.8710
  27   1.0000      -0.415030       -11.2935
  28   1.0000      -0.373229       -10.1561
  29   1.0000      -0.351968        -9.5775
  30   1.0000      -0.347598        -9.4586
  31   1.0000      -0.333432        -9.0731
  32   1.0000      -0.330289        -8.9876
  33   1.0000      -0.321997        -8.7620
  34   1.0000      -0.307380        -8.3642
  35   1.0000      -0.301771        -8.2116
  36   1.0000      -0.293329        -7.9819
  37   1.0000      -0.285735        -7.7752
  38   1.0000      -0.282332        -7.6827
  39   1.0000      -0.267749        -7.2858
  40   1.0000      -0.259434        -7.0596
  41   1.0000      -0.247447        -6.7334
  42   1.0000      -0.235422        -6.4062
  43   1.0000      -0.234589        -6.3835
  44   1.0000      -0.216251        -5.8845
  45   1.0000      -0.195128        -5.3097
  46   1.0000      -0.183229        -4.9859
  47   1.0000      -0.149667        -4.0726
  48   1.0000      -0.139509        -3.7962
  49   1.0000      -0.119834        -3.2609
  50   1.0000      -0.089950        -2.4477
  51   1.0000      -0.084379        -2.2961
  52   1.0000      -0.068418        -1.8617
  53   0.0000       0.036207         0.9852
  54   0.0000       0.101560         2.7636
  55   0.0000       0.127135         3.4595
  56   0.0000       0.136540         3.7154
  57   0.0000       0.147664         4.0181

MULLIKEN ATOMIC CHARGES AND SPIN POPULATIONS
--------------------------------------------
   0 N :    0.008697    0.010927
   1 C :    0.112992    0.662395
   2 C :    0.024640   -0.022790
   3 O :   -0.452001    0.068332
   4 C :   -0.350275   -0.039706
   5 H :    0.163106    0.010294
   6 H :    0.142255    0.007900
   7 C :   -0.298782    0.038033
   8 H :    0.135485    0.003743
   9 H :    0.156762   -0.001881
  10 C :    0.087406   -0.000263
  11 O :   -0.431601    0.000322
  12 O :   -0.415222    0.006684
  13 H :    0.233984   -0.001976
  14 C :    0.092398    0.060921
  15 N :   -0.070796    0.086523
  16 H :    0.260699   -0.002249
  17 O :   -0.321657    0.102437
  18 C :   -0.566326   -0.004971
  19 H :    0.176422    0.006298
  20 H :    0.172236    0.006035
  21 H :    0.147563   -0.000144
  22 C :   -0.469429   -0.007870
  23 H :    0.155006    0.004141
  24 H :    0.149348    0.000204
  25 H :    0.157090    0.006662
Sum of atomic charges         :   -1.0000000

LOEWDIN ATOMIC CHARGES AND SPIN POPULATIONS
-------------------------------------------
   0 N :    0.122870    0.035215
   1 C :   -0.037451    0.539858
   2 C :   -0.119189    0.021895
   3 O :   -0.281758    0.066352
   4 C :   -0.064831    0.008463
   5 H :    0.057112    0.007930
   6 H :    0.055728    0.005660
   7 C :   -0.068074    0.037925
   8 H :    0.048990    0.002815
   9 H :    0.050725   -0.000201
  10 C :   -0.193686    0.000384
  11 O :   -0.317978    0.000254
  12 O :   -0.284289    0.006570
  13 H :    0.096515    0.001125
  14 C :   -0.117794    0.070869
  15 N :    0.034290    0.077907
  16 H :    0.076888    0.001439
  17 O :   -0.199565    0.097929
  18 C :   -0.057341    0.000280
  19 H :    0.047712    0.004851
  20 H :    0.045771    0.004602
  21 H :    0.030695   -0.000220
  22 C :   -0.016489    0.000075
  23 H :    0.029174    0.003146
  24 H :    0.032209    0.000067
  25 H :    0.029767    0.004809

  Mayer bond orders larger than 0.100000
B(  0-N ,  1-C ) :   1.2110 B(  0-N , 13-H ) :   0.8635 B(  0-N , 14-C ) :   1.1911
B(  1-C ,  2-C ) :   1.0819 B(  1-C ,  4-C ) :   0.9955 B(  2-C ,  3-O ) :   1.6354
B(  2-C , 15-N ) :   1.2538 B(  3-O , 13-H ) :   0.1015 B(  4-C ,  5-H ) :   0.9711
B(  4-C ,  6-H ) :   0.9642 B(  4-C ,  7-C ) :   0.9060 B(  7-C ,  8-H ) :   0.9835
B(  7-C ,  9-H ) :   0.9814 B(  7-C , 10-C ) :   0.9103 B( 10-C , 11-O ) :   1.4434
B( 10-C , 12-O ) :   1.7076 B( 11-O , 16-H ) :   0.2085 B( 14-C , 17-O ) :   1.8537
B( 14-C , 18-C ) :   0.8841 B( 15-N , 16-H ) :   0.7622 B( 15-N , 22-C ) :   0.9699
B( 18-C , 19-H ) :   0.9638 B( 18-C , 20-H ) :   0.9670 B( 18-C , 21-H ) :   0.9771
B( 22-C , 23-H ) :   0.9625 B( 22-C , 24-H ) :   0.9717 B( 22-C , 25-H ) :   0.9546

FINAL SINGLE POINT ENERGY      -722.331107864344

DIPOLE MOMENT
-------------
                                X             Y             Z
Electronic contribution:      1.76489       2.46397      -1.87787
Nuclear contribution   :     -3.94160      -5.17142       2.29074
                        -----------------------------------------
Total Dipole Moment    :     -2.17671      -2.70745       0.41287
                        -----------------------------------------
Magnitude (a.u.)       :      3.49840
Magnitude (Debye)      :      8.89223

Rotational constants in cm-1:     0.027874     0.015600     0.010730
Rotational constants in MHz :   835.636366   467.681417   321.684726

                             ****ORCA TERMINATED NORMALLY****
TOTAL RUN TIME: 0 days 0 hours 8 minutes 57 seconds 101 msec
