                         Program Version 5.0.4 -  RELEASE  -
|  1> ! B3LYP EPR-II AUTOAUX
|  2> %pal nprocs 16 end
|  3> *XYZFile 0 2 opt.xyz
|  4> %EPRNMR
|  5>         GTENSOR   TRUE
|  6>         NUCLEI    = 9,10,11,28,29,30,31,32 {SHIFT, AISO, ADIP, AORB}
|  7>         ORI       GIAO
|  8> END
|  9>
| 10>                          ****END OF INPUT****

CARTESIAN COORDINATES (ANGSTROEM)
---------------------------------
  N     -1.814178    0.779892    0.764814
  C     -1.500883   -0.115836   -0.336227
  C     -1.668918   -1.555964    0.192371
  O     -1.753689   -1.798625    1.398016
  C     -0.082956    0.125341   -0.923496
  C      1.071465   -0.134274    0.057709
  C      2.446848    0.191739   -0.555313
  C      3.587283   -0.089823    0.385637
  N      4.869971    0.371794    0.011668
  H      5.565694    0.260896    0.739680
  H      4.869326    1.331196   -0.317738
  H     -1.862727    0.343021    1.676465
  C     -2.251078    2.058821    0.561943
  N     -1.689268   -2.521826   -0.771209
  H     -1.647817   -2.230715   -1.736025
  O     -2.328752    2.560687   -0.560927
  C     -2.626121    2.837477    1.819736
  H     -1.988544    3.723704    1.882128
  H     -3.659515    3.180114    1.719659
  H     -2.524251    2.255383    2.739497
  C     -1.804349   -3.945220   -0.473501
  H     -2.743000   -4.355139   -0.861708
  H     -0.965806   -4.502123   -0.904231
  H     -1.790485   -4.059403    0.610472
  H     -2.227707    0.061792   -1.138815
  H      0.040574   -0.503114   -1.815708
  H     -0.059638    1.164715   -1.268158
  H      1.062385   -1.184299    0.378597
  H      0.928158    0.468462    0.961021
  H      2.569312   -0.382850   -1.492663
  H      2.467820    1.251645   -0.852548
  H      3.591392   -1.040391    0.917453

 Total Charge           Charge          ....    0
 Multiplicity           Mult            ....    2
 Number of Electrons    NEL             ....  109
 Basis Dimension        Dim             ....  364

ORBITAL ENERGIES
----------------
                 SPIN UP ORBITALS
  NO   OCC          E(Eh)            E(eV)
   0   1.0000     -19.120880      -520.3056
   1   1.0000     -19.097775      -519.6769
   2   1.0000     -14.371183      -391.0598
   3   1.0000     -14.347620      -390.4186
   4   1.0000     -14.333946      -390.0465
   5   1.0000     -10.302357      -280.3414
   6   1.0000     -10.286226      -279.9024
   7   1.0000     -10.237263      -278.5701
   8   1.0000     -10.224370      -278.2192
   9   1.0000     -10.198345      -277.5111
  10   1.0000     -10.188244      -277.2362
  11   1.0000     -10.184134      -277.1244
  12   1.0000     -10.181969      -277.0655
  13   1.0000     -10.178666      -276.9756
  14   1.0000      -1.043917       -28.4064
  15   1.0000      -1.019882       -27.7524
  16   1.0000      -0.930517       -25.3206
  17   1.0000      -0.914538       -24.8858
  18   1.0000      -0.896728       -24.4012
  19   1.0000      -0.797674       -21.7058
  20   1.0000      -0.758762       -20.6470
  21   1.0000      -0.725941       -19.7539
  22   1.0000      -0.709717       -19.3124
  23   1.0000      -0.664341       -18.0776
  24   1.0000      -0.612363       -16.6632
  25   1.0000      -0.596508       -16.2318
  26   1.0000      -0.580622       -15.7995
  27   1.0000      -0.561456       -15.2780
  28   1.0000      -0.535929       -14.5834
  29   1.0000      -0.504708       -13.7338
  30   1.0000      -0.479112       -13.0373
  31   1.0000      -0.471101       -12.8193
  32   1.0000      -0.466708       -12.6998
  33   1.0000      -0.460464       -12.5299
  34   1.0000      -0.449913       -12.2427
  35   1.0000      -0.446955       -12.1623
  36   1.0000      -0.441151       -12.0043
  37   1.0000      -0.426149       -11.5961
  38   1.0000      -0.409561       -11.1447
  39   1.0000      -0.402179       -10.9439
  40   1.0000      -0.400183       -10.8895
  41   1.0000      -0.389592       -10.6013
  42   1.0000      -0.382702       -10.4139
  43   1.0000      -0.374599       -10.1934
  44   1.0000      -0.364962        -9.9311
  45   1.0000      -0.356335        -9.6964
  46   1.0000      -0.339439        -9.2366
  47   1.0000      -0.335298        -9.1239
  48   1.0000      -0.326342        -8.8802
  49   1.0000      -0.314344        -8.5537
  50   1.0000      -0.268996        -7.3198
  51   1.0000      -0.268366        -7.3026
  52   1.0000      -0.247354        -6.7309
  53   1.0000      -0.244048        -6.6409
  54   1.0000      -0.143477        -3.9042
  55   0.0000       0.007056         0.1920
  56   0.0000       0.012669         0.3447
  57   0.0000       0.026737         0.7276
  58   0.0000       0.029404         0.8001
  59   0.0000       0.034738         0.9453

                 SPIN DOWN ORBITALS
  NO   OCC          E(Eh)            E(eV)
   0   1.0000     -19.120880      -520.3056
   1   1.0000     -19.097775      -519.6769
   2   1.0000     -14.371183      -391.0598
   3   1.0000     -14.347617      -390.4185
   4   1.0000     -14.330058      -389.9407
   5   1.0000     -10.302357      -280.3414
   6   1.0000     -10.286226      -279.9024
   7   1.0000     -10.237270      -278.5703
   8   1.0000     -10.224370      -278.2192
   9   1.0000     -10.188239      -277.2361
  10   1.0000     -10.186075      -277.1772
  11   1.0000     -10.184134      -277.1244
  12   1.0000     -10.182506      -277.0801
  13   1.0000     -10.178477      -276.9705
  14   1.0000      -1.043917       -28.4064
  15   1.0000      -1.019881       -27.7524
  16   1.0000      -0.930517       -25.3206
  17   1.0000      -0.914531       -24.8857
  18   1.0000      -0.885257       -24.0891
  19   1.0000      -0.796903       -21.6848
  20   1.0000      -0.756687       -20.5905
  21   1.0000      -0.725860       -19.7516
  22   1.0000      -0.706695       -19.2301
  23   1.0000      -0.659908       -17.9570
  24   1.0000      -0.607715       -16.5368
  25   1.0000      -0.596501       -16.2316
  26   1.0000      -0.570205       -15.5161
  27   1.0000      -0.560762       -15.2591
  28   1.0000      -0.535897       -14.5825
  29   1.0000      -0.500843       -13.6286
  30   1.0000      -0.478769       -13.0280
  31   1.0000      -0.470845       -12.8123
  32   1.0000      -0.465899       -12.6778
  33   1.0000      -0.459699       -12.5091
  34   1.0000      -0.448548       -12.2056
  35   1.0000      -0.445001       -12.1091
  36   1.0000      -0.436451       -11.8764
  37   1.0000      -0.425729       -11.5847
  38   1.0000      -0.407084       -11.0773
  39   1.0000      -0.400296       -10.8926
  40   1.0000      -0.399011       -10.8576
  41   1.0000      -0.389190       -10.5904
  42   1.0000      -0.379231       -10.3194
  43   1.0000      -0.373164       -10.1543
  44   1.0000      -0.362063        -9.8522
  45   1.0000      -0.354301        -9.6410
  46   1.0000      -0.335367        -9.1258
  47   1.0000      -0.331331        -9.0160
  48   1.0000      -0.323700        -8.8083
  49   1.0000      -0.284507        -7.7418
  50   1.0000      -0.268992        -7.3196
  51   1.0000      -0.268334        -7.3017
  52   1.0000      -0.247293        -6.7292
  53   1.0000      -0.244045        -6.6408
  54   0.0000      -0.012456        -0.3389
  55   0.0000       0.007156         0.1947
  56   0.0000       0.012797         0.3482
  57   0.0000       0.026925         0.7327
  58   0.0000       0.029465         0.8018

MULLIKEN ATOMIC CHARGES AND SPIN POPULATIONS
--------------------------------------------
   0 N :   -0.116053    0.000020
   1 C :   -0.129039    0.000863
   2 C :    0.087951   -0.000322
   3 O :   -0.332929    0.000030
   4 C :   -0.281119   -0.001175
   5 C :   -0.259519    0.012151
   6 C :   -0.242901   -0.028099
   7 C :   -0.256392    0.819529
   8 N :   -0.399463    0.162526
   9 H :    0.227762   -0.001229
  10 H :    0.225476    0.001920
  11 H :    0.252681   -0.000001
  12 C :    0.170122   -0.000225
  13 N :   -0.092122   -0.000019
  14 H :    0.230581    0.000004
  15 O :   -0.327788    0.000016
  16 C :   -0.554917    0.000069
  17 H :    0.184935    0.000004
  18 H :    0.185850   -0.000001
  19 H :    0.149303    0.000000
  20 C :   -0.459155    0.000007
  21 H :    0.164257   -0.000001
  22 H :    0.160897    0.000000
  23 H :    0.200484    0.000002
  24 H :    0.164594    0.000021
  25 H :    0.126532    0.000184
  26 H :    0.178196    0.000157
  27 H :    0.148413   -0.000470
  28 H :    0.167589   -0.000610
  29 H :    0.138069    0.048260
  30 H :    0.141638    0.011233
  31 H :    0.146064   -0.024844
Sum of atomic charges         :   -0.0000000

LOEWDIN ATOMIC CHARGES AND SPIN POPULATIONS
-------------------------------------------
   0 N :    0.064645    0.000071
   1 C :   -0.048679   -0.000030
   2 C :   -0.092784    0.000002
   3 O :   -0.194914   -0.000004
   4 C :   -0.060705    0.001138
   5 C :   -0.069153    0.008858
   6 C :   -0.096628    0.017102
   7 C :   -0.134013    0.717745
   8 N :   -0.016024    0.169838
   9 H :    0.061630    0.008748
  10 H :    0.063279    0.012589
  11 H :    0.090490    0.000006
  12 C :   -0.104858   -0.000012
  13 N :    0.041153   -0.000006
  14 H :    0.079408    0.000020
  15 O :   -0.199814    0.000003
  16 C :   -0.043261    0.000015
  17 H :    0.053793    0.000000
  18 H :    0.054079   -0.000001
  19 H :    0.033657    0.000001
  20 C :    0.010766    0.000002
  21 H :    0.031622   -0.000001
  22 H :    0.031463   -0.000000
  23 H :    0.055089    0.000001
  24 H :    0.067022    0.000024
  25 H :    0.041458    0.000507
  26 H :    0.058505    0.000072
  27 H :    0.047345    0.000059
  28 H :    0.050677    0.000277
  29 H :    0.046543    0.036083
  30 H :    0.045053    0.011532
  31 H :    0.033157    0.015361

  Mayer bond orders larger than 0.100000
B(  0-N ,  1-C ) :   1.0210 B(  0-N , 11-H ) :   0.8929 B(  0-N , 12-C ) :   1.2097
B(  1-C ,  2-C ) :   0.8998 B(  1-C ,  4-C ) :   0.9283 B(  1-C , 15-O ) :   0.1444
B(  1-C , 24-H ) :   0.9721 B(  2-C ,  3-O ) :   1.8699 B(  2-C , 13-N ) :   1.1836
B(  4-C ,  5-C ) :   0.9601 B(  4-C , 25-H ) :   0.9778 B(  4-C , 26-H ) :   0.9638
B(  5-C ,  6-C ) :   0.9711 B(  5-C , 27-H ) :   0.9659 B(  5-C , 28-H ) :   0.9685
B(  6-C ,  7-C ) :   0.9851 B(  6-C , 29-H ) :   0.9611 B(  6-C , 30-H ) :   0.9725
B(  7-C ,  8-N ) :   1.1767 B(  7-C , 31-H ) :   0.9719 B(  8-N ,  9-H ) :   0.9419
B(  8-N , 10-H ) :   0.9414 B( 12-C , 15-O ) :   1.8576 B( 12-C , 16-C ) :   0.8937
B( 13-N , 14-H ) :   0.9299 B( 13-N , 20-C ) :   0.9704 B( 16-C , 17-H ) :   0.9590
B( 16-C , 18-H ) :   0.9591 B( 16-C , 19-H ) :   0.9760 B( 20-C , 21-H ) :   0.9601
B( 20-C , 22-H ) :   0.9595 B( 20-C , 23-H ) :   0.9431

FINAL SINGLE POINT ENERGY      -668.229367511880

DIPOLE MOMENT
-------------
                                X             Y             Z
Electronic contribution:     -7.52996       1.44730       0.62770
Nuclear contribution   :      8.11043      -2.36387      -0.81107
                        -----------------------------------------
Total Dipole Moment    :      0.58047      -0.91657      -0.18337
                        -----------------------------------------
Magnitude (a.u.)       :      1.10031
Magnitude (Debye)      :      2.79676

Rotational constants in cm-1:     0.019633     0.013267     0.008989
Rotational constants in MHz :   588.584848   397.732901   269.485324

CHEMICAL SHIELDING SUMMARY (ppm)  --  Orbital contribution
----------------------------------------------------------

  Nucleus  Element    Isotropic     Anisotropy
  -------  -------  ------------   ------------
      8       N          174.065         52.648
      9       H           29.093         10.760
     10       H           29.600          8.504
     27       H           30.800          5.107
     28       H           30.280          5.125
     29       H           29.481          5.606
     30       H           30.132          4.720
     31       H           27.708          7.346

                             ****ORCA TERMINATED NORMALLY****
TOTAL RUN TIME: 0 days 0 hours 4 minutes 25 seconds 287 msec
