                         Program Version 5.0.4 -  RELEASE  -
|  1> ! M062X def2-TZVP OPT FREQ
|  2> %pal nprocs 16 end
|  3> *XYZFile 0 2 opt.xyz
|  4>
|  5>                          ****END OF INPUT****
 Total Charge           Charge          ....    0
 Multiplicity           Mult            ....    2
 Number of Electrons    NEL             ....  109
FINAL SINGLE POINT ENERGY      -668.454115646424
FINAL SINGLE POINT ENERGY      -668.457111483377
FINAL SINGLE POINT ENERGY      -668.457283855897
FINAL SINGLE POINT ENERGY      -668.457336845894
FINAL SINGLE POINT ENERGY      -668.457381547164
FINAL SINGLE POINT ENERGY      -668.457400106254
FINAL SINGLE POINT ENERGY      -668.457408223790
FINAL SINGLE POINT ENERGY      -668.457413873793
FINAL SINGLE POINT ENERGY      -668.457422498478
FINAL SINGLE POINT ENERGY      -668.457430984864
FINAL SINGLE POINT ENERGY      -668.457436589694
FINAL SINGLE POINT ENERGY      -668.457436553922
                    ***********************HURRAY********************

CARTESIAN COORDINATES (ANGSTROEM)
---------------------------------
  N     -1.840662    0.769538    0.767953
  C     -1.539906   -0.110777   -0.333242
  C     -1.658675   -1.542377    0.186986
  O     -1.783403   -1.786027    1.372383
  C     -0.145643    0.153148   -0.923935
  C      0.988965   -0.164225    0.038964
  C      2.354922    0.177373   -0.545604
  C      3.470328   -0.122455    0.393055
  N      4.745315    0.310983    0.032460
  H      5.452422    0.201287    0.743439
  H      4.773664    1.238384   -0.368131
  H     -1.888342    0.339436    1.679741
  C     -2.207169    2.055977    0.559946
  N     -1.576932   -2.497815   -0.764593
  H     -1.513638   -2.205828   -1.725032
  O     -2.254384    2.543377   -0.554557
  C     -2.539709    2.854418    1.798318
  H     -1.791024    3.637866    1.914015
  H     -3.504364    3.336135    1.649542
  H     -2.565976    2.248756    2.702481
  C     -1.635905   -3.912210   -0.461149
  H     -2.576074   -4.350486   -0.799066
  H     -0.806775   -4.437577   -0.934049
  H     -1.563171   -4.020496    0.617588
  H     -2.284615    0.053633   -1.118027
  H     -0.027213   -0.429712   -1.842301
  H     -0.120980    1.205365   -1.214710
  H      0.967401   -1.226932    0.303397
  H      0.845670    0.389794    0.970022
  H      2.488066   -0.364014   -1.496218
  H      2.377081    1.242706   -0.809327
  H      3.441271   -1.040169    0.968251

 Multiplicity           Mult            ....    2
 Number of Electrons    NEL             ....  109
 Basis Dimension        Dim             ....  542

ORBITAL ENERGIES
----------------
                 SPIN UP ORBITALS
  NO   OCC          E(Eh)            E(eV)
   0   1.0000     -19.604537      -533.4666
   1   1.0000     -19.581570      -532.8416
   2   1.0000     -14.784729      -402.3129
   3   1.0000     -14.763577      -401.7374
   4   1.0000     -14.749191      -401.3459
   5   1.0000     -10.651185      -289.8335
   6   1.0000     -10.635330      -289.4020
   7   1.0000     -10.587041      -288.0880
   8   1.0000     -10.576106      -287.7905
   9   1.0000     -10.547922      -287.0236
  10   1.0000     -10.538201      -286.7590
  11   1.0000     -10.534880      -286.6687
  12   1.0000     -10.531320      -286.5718
  13   1.0000     -10.529192      -286.5139
  14   1.0000      -1.178934       -32.0804
  15   1.0000      -1.155186       -31.4342
  16   1.0000      -1.046900       -28.4876
  17   1.0000      -1.032765       -28.1030
  18   1.0000      -1.013575       -27.5808
  19   1.0000      -0.908500       -24.7215
  20   1.0000      -0.864563       -23.5260
  21   1.0000      -0.826648       -22.4942
  22   1.0000      -0.807897       -21.9840
  23   1.0000      -0.759091       -20.6559
  24   1.0000      -0.703881       -19.1536
  25   1.0000      -0.683042       -18.5865
  26   1.0000      -0.671070       -18.2607
  27   1.0000      -0.647376       -17.6160
  28   1.0000      -0.619985       -16.8707
  29   1.0000      -0.588637       -16.0176
  30   1.0000      -0.564425       -15.3588
  31   1.0000      -0.552176       -15.0255
  32   1.0000      -0.549750       -14.9595
  33   1.0000      -0.544460       -14.8155
  34   1.0000      -0.532131       -14.4800
  35   1.0000      -0.526600       -14.3295
  36   1.0000      -0.519612       -14.1394
  37   1.0000      -0.502622       -13.6770
  38   1.0000      -0.487129       -13.2555
  39   1.0000      -0.476277       -12.9602
  40   1.0000      -0.469256       -12.7691
  41   1.0000      -0.465926       -12.6785
  42   1.0000      -0.454622       -12.3709
  43   1.0000      -0.450884       -12.2692
  44   1.0000      -0.436669       -11.8824
  45   1.0000      -0.430601       -11.7172
  46   1.0000      -0.409489       -11.1428
  47   1.0000      -0.403381       -10.9766
  48   1.0000      -0.394074       -10.7233
  49   1.0000      -0.383556       -10.4371
  50   1.0000      -0.345487        -9.4012
  51   1.0000      -0.336445        -9.1551
  52   1.0000      -0.325296        -8.8518
  53   1.0000      -0.313775        -8.5382
  54   1.0000      -0.196825        -5.3559
  55   0.0000       0.042964         1.1691
  56   0.0000       0.055264         1.5038
  57   0.0000       0.066436         1.8078
  58   0.0000       0.071037         1.9330
  59   0.0000       0.072395         1.9700

                 SPIN DOWN ORBITALS
  NO   OCC          E(Eh)            E(eV)
   0   1.0000     -19.604537      -533.4666
   1   1.0000     -19.581569      -532.8416
   2   1.0000     -14.784729      -402.3129
   3   1.0000     -14.763576      -401.7373
   4   1.0000     -14.746396      -401.2698
   5   1.0000     -10.651185      -289.8335
   6   1.0000     -10.635330      -289.4020
   7   1.0000     -10.587047      -288.0882
   8   1.0000     -10.576106      -287.7905
   9   1.0000     -10.541288      -286.8430
  10   1.0000     -10.538202      -286.7591
  11   1.0000     -10.534880      -286.6687
  12   1.0000     -10.531768      -286.5840
  13   1.0000     -10.529058      -286.5102
  14   1.0000      -1.178935       -32.0804
  15   1.0000      -1.155186       -31.4342
  16   1.0000      -1.046901       -28.4876
  17   1.0000      -1.032757       -28.1027
  18   1.0000      -0.999758       -27.2048
  19   1.0000      -0.907476       -24.6937
  20   1.0000      -0.862020       -23.4568
  21   1.0000      -0.826410       -22.4878
  22   1.0000      -0.804415       -21.8892
  23   1.0000      -0.754449       -20.5296
  24   1.0000      -0.698991       -19.0205
  25   1.0000      -0.683040       -18.5865
  26   1.0000      -0.657988       -17.9048
  27   1.0000      -0.646632       -17.5957
  28   1.0000      -0.619924       -16.8690
  29   1.0000      -0.583370       -15.8743
  30   1.0000      -0.563736       -15.3400
  31   1.0000      -0.551711       -15.0128
  32   1.0000      -0.548867       -14.9354
  33   1.0000      -0.543439       -14.7877
  34   1.0000      -0.528344       -14.3770
  35   1.0000      -0.523636       -14.2488
  36   1.0000      -0.512980       -13.9589
  37   1.0000      -0.501897       -13.6573
  38   1.0000      -0.484577       -13.1860
  39   1.0000      -0.472348       -12.8532
  40   1.0000      -0.468862       -12.7584
  41   1.0000      -0.463974       -12.6254
  42   1.0000      -0.452787       -12.3210
  43   1.0000      -0.446589       -12.1523
  44   1.0000      -0.433590       -11.7986
  45   1.0000      -0.427474       -11.6322
  46   1.0000      -0.402401       -10.9499
  47   1.0000      -0.396770       -10.7967
  48   1.0000      -0.390560       -10.6277
  49   1.0000      -0.355184        -9.6650
  50   1.0000      -0.345437        -9.3998
  51   1.0000      -0.336395        -9.1538
  52   1.0000      -0.325290        -8.8516
  53   1.0000      -0.313674        -8.5355
  54   0.0000       0.021541         0.5862
  55   0.0000       0.042315         1.1515
  56   0.0000       0.055010         1.4969
  57   0.0000       0.063479         1.7274
  58   0.0000       0.070423         1.9163

MULLIKEN ATOMIC CHARGES AND SPIN POPULATIONS
--------------------------------------------
   0 N :   -0.392281    0.000133
   1 C :   -0.094911   -0.000829
   2 C :    0.372199    0.000754
   3 O :   -0.412910   -0.000079
   4 C :   -0.330935    0.003869
   5 C :   -0.289079    0.035250
   6 C :   -0.263387   -0.081334
   7 C :   -0.117928    0.877263
   8 N :   -0.492833    0.143755
   9 H :    0.240671   -0.001844
  10 H :    0.237677   -0.000809
  11 H :    0.267821    0.000075
  12 C :    0.389334    0.000246
  13 N :   -0.345883   -0.000107
  14 H :    0.246282    0.000086
  15 O :   -0.415161   -0.000003
  16 C :   -0.456533   -0.000064
  17 H :    0.156982    0.000002
  18 H :    0.159089    0.000000
  19 H :    0.128884    0.000005
  20 C :   -0.310100   -0.000004
  21 H :    0.147028   -0.000002
  22 H :    0.143626    0.000002
  23 H :    0.182353   -0.000009
  24 H :    0.191305   -0.000060
  25 H :    0.147908   -0.001619
  26 H :    0.196715   -0.000227
  27 H :    0.144771   -0.004242
  28 H :    0.152081   -0.004382
  29 H :    0.135578    0.056695
  30 H :    0.137477    0.015190
  31 H :    0.144161   -0.037710
Sum of atomic charges         :    0.0000000

LOEWDIN ATOMIC CHARGES AND SPIN POPULATIONS
-------------------------------------------
   0 N :    0.146578    0.000053
   1 C :   -0.249339    0.000050
   2 C :   -0.441280    0.000053
   3 O :    0.057483   -0.000011
   4 C :   -0.241788    0.001916
   5 C :   -0.262871    0.007171
   6 C :   -0.296155    0.060034
   7 C :   -0.314124    0.686849
   8 N :   -0.101767    0.182779
   9 H :    0.159390    0.005320
  10 H :    0.159876    0.007183
  11 H :    0.194488    0.000014
  12 C :   -0.482991   -0.000005
  13 N :    0.100316    0.000002
  14 H :    0.186584    0.000018
  15 O :    0.049826    0.000007
  16 C :   -0.262992    0.000006
  17 H :    0.138498   -0.000000
  18 H :    0.137890   -0.000000
  19 H :    0.122189    0.000002
  20 C :   -0.302655    0.000005
  21 H :    0.115446   -0.000001
  22 H :    0.115656   -0.000000
  23 H :    0.134177   -0.000000
  24 H :    0.165411    0.000014
  25 H :    0.135957    0.000426
  26 H :    0.153487    0.000080
  27 H :    0.142631   -0.000317
  28 H :    0.141838    0.001481
  29 H :    0.137295    0.032603
  30 H :    0.140712    0.009603
  31 H :    0.120233    0.004670

  Mayer bond orders larger than 0.100000
B(  0-N ,  1-C ) :   0.9226 B(  0-N , 11-H ) :   0.8777 B(  0-N , 12-C ) :   1.2117
B(  1-C ,  2-C ) :   0.9339 B(  1-C ,  4-C ) :   0.8813 B(  1-C , 24-H ) :   0.9930
B(  2-C ,  3-O ) :   1.9152 B(  2-C , 13-N ) :   1.2250 B(  4-C ,  5-C ) :   0.8492
B(  4-C , 25-H ) :   0.9920 B(  4-C , 26-H ) :   0.9684 B(  5-C ,  6-C ) :   0.9147
B(  5-C , 27-H ) :   0.9788 B(  5-C , 28-H ) :   0.9767 B(  6-C ,  7-C ) :   0.9837
B(  6-C , 29-H ) :   0.9451 B(  6-C , 30-H ) :   0.9796 B(  7-C ,  8-N ) :   1.1364
B(  7-C , 31-H ) :   0.9583 B(  8-N ,  9-H ) :   0.9277 B(  8-N , 10-H ) :   0.9229
B( 12-C , 15-O ) :   1.9163 B( 12-C , 16-C ) :   0.9112 B( 13-N , 14-H ) :   0.9179
B( 13-N , 20-C ) :   0.9031 B( 16-C , 17-H ) :   0.9547 B( 16-C , 18-H ) :   0.9671
B( 16-C , 19-H ) :   0.9854 B( 20-C , 21-H ) :   0.9696 B( 20-C , 22-H ) :   0.9682
B( 20-C , 23-H ) :   0.9624

FINAL SINGLE POINT ENERGY      -668.457436919816

DIPOLE MOMENT
-------------
                                X             Y             Z
Electronic contribution:     -7.63828       1.43899       0.62038
Nuclear contribution   :      8.24855      -2.28878      -0.80193
                        -----------------------------------------
Total Dipole Moment    :      0.61027      -0.84979      -0.18154
                        -----------------------------------------
Magnitude (a.u.)       :      1.06185
Magnitude (Debye)      :      2.69901

VIBRATIONAL FREQUENCIES
-----------------------

Scaling factor for frequencies =  1.000000000  (already applied!)

   0:         0.00 cm**-1
   1:         0.00 cm**-1
   2:         0.00 cm**-1
   3:         0.00 cm**-1
   4:         0.00 cm**-1
   5:         0.00 cm**-1
   6:        34.67 cm**-1
   7:        52.94 cm**-1
   8:        64.78 cm**-1
   9:        80.78 cm**-1
  10:        91.59 cm**-1
  11:       100.18 cm**-1
  12:       111.23 cm**-1
  13:       122.08 cm**-1
  14:       126.37 cm**-1
  15:       131.97 cm**-1
  16:       149.59 cm**-1
  17:       169.10 cm**-1
  18:       215.43 cm**-1
  19:       248.36 cm**-1
  20:       300.68 cm**-1
  21:       332.87 cm**-1
  22:       334.72 cm**-1
  23:       356.78 cm**-1
  24:       392.84 cm**-1
  25:       430.56 cm**-1
  26:       493.53 cm**-1
  27:       521.55 cm**-1
  28:       548.66 cm**-1
  29:       572.80 cm**-1
  30:       603.24 cm**-1
  31:       636.22 cm**-1
  32:       666.11 cm**-1
  33:       696.57 cm**-1
  34:       699.93 cm**-1
  35:       753.26 cm**-1
  36:       809.85 cm**-1
  37:       863.33 cm**-1
  38:       893.77 cm**-1
  39:       944.52 cm**-1
  40:       992.38 cm**-1
  41:      1018.20 cm**-1
  42:      1023.87 cm**-1
  43:      1063.75 cm**-1
  44:      1066.66 cm**-1
  45:      1077.09 cm**-1
  46:      1085.96 cm**-1
  47:      1107.14 cm**-1
  48:      1145.95 cm**-1
  49:      1159.18 cm**-1
  50:      1181.84 cm**-1
  51:      1197.48 cm**-1
  52:      1227.39 cm**-1
  53:      1232.64 cm**-1
  54:      1249.77 cm**-1
  55:      1276.52 cm**-1
  56:      1288.64 cm**-1
  57:      1300.39 cm**-1
  58:      1329.35 cm**-1
  59:      1333.52 cm**-1
  60:      1373.14 cm**-1
  61:      1389.27 cm**-1
  62:      1412.28 cm**-1
  63:      1417.04 cm**-1
  64:      1449.16 cm**-1
  65:      1466.80 cm**-1
  66:      1476.68 cm**-1
  67:      1483.68 cm**-1
  68:      1488.25 cm**-1
  69:      1490.55 cm**-1
  70:      1503.71 cm**-1
  71:      1505.46 cm**-1
  72:      1512.00 cm**-1
  73:      1550.65 cm**-1
  74:      1591.28 cm**-1
  75:      1647.06 cm**-1
  76:      1774.15 cm**-1
  77:      1789.09 cm**-1
  78:      2971.05 cm**-1
  79:      3037.65 cm**-1
  80:      3056.79 cm**-1
  81:      3066.03 cm**-1
  82:      3075.28 cm**-1
  83:      3079.54 cm**-1
  84:      3088.90 cm**-1
  85:      3106.22 cm**-1
  86:      3128.98 cm**-1
  87:      3141.40 cm**-1
  88:      3171.18 cm**-1
  89:      3183.51 cm**-1
  90:      3193.66 cm**-1
  91:      3194.01 cm**-1
  92:      3552.22 cm**-1
  93:      3622.43 cm**-1
  94:      3659.58 cm**-1
  95:      3661.24 cm**-1

IR SPECTRUM
-----------

 Mode   freq       eps      Int      T**2         TX        TY        TZ
       cm**-1   L/(mol*cm) km/mol    a.u.
----------------------------------------------------------------------------
  6:     34.67   0.000218    1.10  0.001966  ( 0.043721 -0.000238  0.007393)
  7:     52.94   0.000288    1.45  0.001697  (-0.039217  0.012075  0.003618)
  8:     64.78   0.000151    0.76  0.000727  (-0.011464 -0.014846  0.019370)
  9:     80.78   0.000549    2.77  0.002120  (-0.038921 -0.008648 -0.023022)
 10:     91.59   0.000705    3.56  0.002401  ( 0.046935  0.011229 -0.008489)
 11:    100.18   0.001952    9.86  0.006080  (-0.073804 -0.024596 -0.005292)
 12:    111.23   0.001075    5.43  0.003017  (-0.007547 -0.054170 -0.005055)
 13:    122.08   0.000010    0.05  0.000026  ( 0.000203  0.003733 -0.003434)
 14:    126.37   0.000040    0.20  0.000099  ( 0.007995 -0.004210  0.004113)
 15:    131.97   0.000456    2.31  0.001079  (-0.019248  0.018526  0.019116)
 16:    149.59   0.002042   10.32  0.004260  ( 0.044131 -0.048084  0.000426)
 17:    169.10   0.000569    2.87  0.001049  ( 0.025347  0.019229  0.006078)
 18:    215.43   0.000275    1.39  0.000399  ( 0.016458  0.007430  0.008538)
 19:    248.36   0.000671    3.39  0.000843  ( 0.010552 -0.023955 -0.012543)
 20:    300.68   0.000761    3.85  0.000790  ( 0.011705 -0.024593 -0.006925)
 21:    332.87   0.000339    1.71  0.000318  ( 0.001858  0.009604 -0.014899)
 22:    334.72   0.005451   27.55  0.005082  (-0.048937  0.051614 -0.004826)
 23:    356.78   0.001695    8.57  0.001483  ( 0.027161 -0.011486  0.024762)
 24:    392.84   0.003767   19.04  0.002992  (-0.002823 -0.054209 -0.006756)
 25:    430.56   0.006377   32.23  0.004622  ( 0.063748 -0.007631 -0.022357)
 26:    493.53   0.004352   22.00  0.002752  ( 0.052451  0.000304  0.000977)
 27:    521.55   0.007242   36.60  0.004333  (-0.058280 -0.021592 -0.021683)
 28:    548.66   0.020604  104.13  0.011719  (-0.107963 -0.007942 -0.000310)
 29:    572.80   0.005458   27.58  0.002974  (-0.003477 -0.035440 -0.041297)
 30:    603.24   0.007118   35.97  0.003682  (-0.012640 -0.000895  0.059344)
 31:    636.22   0.002259   11.42  0.001108  (-0.026726  0.019838 -0.000474)
 32:    666.11   0.001062    5.37  0.000498  ( 0.018922  0.011785  0.000820)
 33:    696.57   0.039094  197.57  0.017514  (-0.104487  0.031026  0.075061)
 34:    699.93   0.001939    9.80  0.000865  ( 0.021605 -0.008795 -0.017900)
 35:    753.26   0.001700    8.59  0.000704  ( 0.015338 -0.020277 -0.007603)
 36:    809.85   0.000317    1.60  0.000122  (-0.005163 -0.006254 -0.007504)
 37:    863.33   0.000655    3.31  0.000237  (-0.004468 -0.014132  0.004116)
 38:    893.77   0.000717    3.62  0.000250  ( 0.007002  0.006240  0.012745)
 39:    944.52   0.000956    4.83  0.000316  (-0.006521  0.006752  0.015095)
 40:    992.38   0.000802    4.05  0.000252  (-0.011315 -0.004036 -0.010391)
 41:   1018.20   0.002713   13.71  0.000831  ( 0.010709 -0.026740 -0.001315)
 42:   1023.87   0.000897    4.53  0.000273  ( 0.006209 -0.006760 -0.013749)
 43:   1063.75   0.000400    2.02  0.000117  ( 0.006485  0.006738  0.005480)
 44:   1066.66   0.001177    5.95  0.000344  (-0.018171 -0.003330 -0.001723)
 45:   1077.09   0.001005    5.08  0.000291  (-0.003059 -0.010596 -0.013018)
 46:   1085.96   0.000070    0.35  0.000020  (-0.004244  0.001143  0.000841)
 47:   1107.14   0.000678    3.42  0.000191  (-0.011287 -0.001724  0.007786)
 48:   1145.95   0.000661    3.34  0.000180  (-0.003312 -0.012846  0.002004)
 49:   1159.18   0.001289    6.51  0.000347  ( 0.004060 -0.015803 -0.008987)
 50:   1181.84   0.004638   23.44  0.001225  (-0.004904 -0.028697 -0.019418)
 51:   1197.48   0.001764    8.92  0.000460  (-0.009126  0.017342  0.008702)
 52:   1227.39   0.002330   11.78  0.000592  (-0.011287  0.019928  0.008242)
 53:   1232.64   0.002432   12.29  0.000616  ( 0.024610  0.003108 -0.000634)
 54:   1249.77   0.008510   43.00  0.002125  ( 0.018075  0.041751  0.007414)
 55:   1276.52   0.005091   25.73  0.001245  ( 0.000211 -0.034969 -0.004653)
 56:   1288.64   0.006711   33.92  0.001625  ( 0.033352 -0.020379 -0.009881)
 57:   1300.39   0.001020    5.16  0.000245  (-0.007776 -0.011871 -0.006595)
 58:   1329.35   0.004379   22.13  0.001028  ( 0.009027 -0.030683  0.002246)
 59:   1333.52   0.000100    0.50  0.000023  ( 0.004013 -0.001323 -0.002347)
 60:   1373.14   0.002363   11.94  0.000537  ( 0.004648  0.021984  0.005668)
 61:   1389.27   0.000723    3.66  0.000162  ( 0.001203  0.012392 -0.002729)
 62:   1412.28   0.008265   41.77  0.001826  ( 0.011184 -0.037194 -0.017826)
 63:   1417.04   0.001222    6.18  0.000269  ( 0.015011 -0.004206  0.005115)
 64:   1449.16   0.003273   16.54  0.000705  (-0.004423 -0.001792 -0.026115)
 65:   1466.80   0.003946   19.94  0.000839  (-0.027753 -0.004156  0.007207)
 66:   1476.68   0.002429   12.28  0.000513  (-0.019293  0.010888 -0.004759)
 67:   1483.68   0.000481    2.43  0.000101  ( 0.009847  0.002014  0.000276)
 68:   1488.25   0.005643   28.52  0.001183  ( 0.005026  0.031132 -0.013740)
 69:   1490.55   0.005872   29.68  0.001229  (-0.008921  0.033835 -0.002257)
 70:   1503.71   0.002849   14.40  0.000591  (-0.007247  0.020776 -0.010353)
 71:   1505.46   0.004721   23.86  0.000979  (-0.013120  0.025986  0.011457)
 72:   1512.00   0.010873   54.95  0.002244  ( 0.007859  0.046232  0.006701)
 73:   1550.65   0.098647  498.52  0.019852  (-0.044092  0.126591  0.043395)
 74:   1591.28   0.026992  136.41  0.005293  ( 0.016191  0.059217  0.039047)
 75:   1647.06   0.012690   64.13  0.002404  ( 0.037958  0.030666  0.004814)
 76:   1774.15   0.082910  418.99  0.014583  ( 0.009256 -0.048730  0.110106)
 77:   1789.09   0.020817  105.20  0.003631  (-0.020129  0.034899  0.044811)
 78:   2971.05   0.007896   39.90  0.000829  ( 0.002736  0.003346  0.028473)
 79:   3037.65   0.002288   11.56  0.000235  ( 0.003001  0.014951 -0.001584)
 80:   3056.79   0.003044   15.38  0.000311  (-0.001786 -0.015867  0.007473)
 81:   3066.03   0.003868   19.55  0.000394  (-0.006301 -0.005157  0.018094)
 82:   3075.28   0.011027   55.73  0.001119  ( 0.006528  0.030714  0.011535)
 83:   3079.54   0.002813   14.22  0.000285  (-0.004444 -0.008361 -0.013980)
 84:   3088.90   0.000601    3.03  0.000061  (-0.001089  0.001518  0.007562)
 85:   3106.22   0.001793    9.06  0.000180  (-0.002345  0.010022  0.008613)
 86:   3128.98   0.003771   19.06  0.000376  (-0.001919 -0.017559 -0.008008)
 87:   3141.40   0.003052   15.42  0.000303  (-0.017116  0.002457  0.002047)
 88:   3171.18   0.000559    2.82  0.000055  (-0.004964 -0.003139  0.004525)
 89:   3183.51   0.001192    6.03  0.000117  (-0.002494  0.006102 -0.008569)
 90:   3193.66   0.000005    0.02  0.000000  ( 0.000180  0.000562  0.000347)
 91:   3194.01   0.002898   14.64  0.000283  (-0.002772 -0.013014  0.010298)
 92:   3552.22   0.002286   11.55  0.000201  ( 0.011974  0.007211  0.002338)
 93:   3622.43   0.020188  102.02  0.001739  ( 0.000974 -0.034182  0.023869)
 94:   3659.58   0.003619   18.29  0.000309  (-0.009285  0.008211 -0.012448)
 95:   3661.24   0.007793   39.38  0.000664  (-0.000860  0.001247  0.025728)

--------------------------
THERMOCHEMISTRY AT 298.15K
--------------------------

Temperature         ... 298.15 K
Pressure            ... 1.00 atm
Total Mass          ... 200.26 AMU

Throughout the following assumptions are being made:
  (1) The electronic state is orbitally nondegenerate
      but the spin degeneracy is treated
  (2) There are no thermally accessible electronically excited states
  (3) Hindered rotations indicated by low frequency modes are not
      treated as such but are treated as vibrations and this may
      cause some error
  (4) All equations used are the standard statistical mechanics
      equations for an ideal gas
  (5) All vibrations are strictly harmonic

freq.      34.67  E(vib)   ...       0.54
freq.      52.94  E(vib)   ...       0.52
freq.      64.78  E(vib)   ...       0.50
freq.      80.78  E(vib)   ...       0.48
freq.      91.59  E(vib)   ...       0.47
freq.     100.18  E(vib)   ...       0.46
freq.     111.23  E(vib)   ...       0.45
freq.     122.08  E(vib)   ...       0.44
freq.     126.37  E(vib)   ...       0.43
freq.     131.97  E(vib)   ...       0.42
freq.     149.59  E(vib)   ...       0.40
freq.     169.10  E(vib)   ...       0.38
freq.     215.43  E(vib)   ...       0.34
freq.     248.36  E(vib)   ...       0.31
freq.     300.68  E(vib)   ...       0.26
freq.     332.87  E(vib)   ...       0.24
freq.     334.72  E(vib)   ...       0.24
freq.     356.78  E(vib)   ...       0.22
freq.     392.84  E(vib)   ...       0.20
freq.     430.56  E(vib)   ...       0.18
freq.     493.53  E(vib)   ...       0.14
freq.     521.55  E(vib)   ...       0.13
freq.     548.66  E(vib)   ...       0.12
freq.     572.80  E(vib)   ...       0.11
freq.     603.24  E(vib)   ...       0.10
freq.     636.22  E(vib)   ...       0.09
freq.     666.11  E(vib)   ...       0.08
freq.     696.57  E(vib)   ...       0.07
freq.     699.93  E(vib)   ...       0.07
freq.     753.26  E(vib)   ...       0.06
freq.     809.85  E(vib)   ...       0.05
freq.     863.33  E(vib)   ...       0.04
freq.     893.77  E(vib)   ...       0.03
freq.     944.52  E(vib)   ...       0.03
freq.     992.38  E(vib)   ...       0.02
freq.    1018.20  E(vib)   ...       0.02
freq.    1023.87  E(vib)   ...       0.02
freq.    1063.75  E(vib)   ...       0.02
freq.    1066.66  E(vib)   ...       0.02
freq.    1077.09  E(vib)   ...       0.02
freq.    1085.96  E(vib)   ...       0.02
freq.    1107.14  E(vib)   ...       0.02
freq.    1145.95  E(vib)   ...       0.01
freq.    1159.18  E(vib)   ...       0.01
freq.    1181.84  E(vib)   ...       0.01
freq.    1197.48  E(vib)   ...       0.01
freq.    1227.39  E(vib)   ...       0.01
freq.    1232.64  E(vib)   ...       0.01
freq.    1249.77  E(vib)   ...       0.01
freq.    1276.52  E(vib)   ...       0.01
freq.    1288.64  E(vib)   ...       0.01
freq.    1300.39  E(vib)   ...       0.01
freq.    1329.35  E(vib)   ...       0.01
freq.    1333.52  E(vib)   ...       0.01
freq.    1373.14  E(vib)   ...       0.01
freq.    1389.27  E(vib)   ...       0.00
freq.    1412.28  E(vib)   ...       0.00
freq.    1417.04  E(vib)   ...       0.00
freq.    1449.16  E(vib)   ...       0.00
freq.    1466.80  E(vib)   ...       0.00
freq.    1476.68  E(vib)   ...       0.00
freq.    1483.68  E(vib)   ...       0.00
freq.    1488.25  E(vib)   ...       0.00
freq.    1490.55  E(vib)   ...       0.00
freq.    1503.71  E(vib)   ...       0.00
freq.    1505.46  E(vib)   ...       0.00
freq.    1512.00  E(vib)   ...       0.00
freq.    1550.65  E(vib)   ...       0.00
freq.    1591.28  E(vib)   ...       0.00
freq.    1647.06  E(vib)   ...       0.00
freq.    1774.15  E(vib)   ...       0.00
freq.    1789.09  E(vib)   ...       0.00
freq.    2971.05  E(vib)   ...       0.00
freq.    3037.65  E(vib)   ...       0.00
freq.    3056.79  E(vib)   ...       0.00
freq.    3066.03  E(vib)   ...       0.00
freq.    3075.28  E(vib)   ...       0.00
freq.    3079.54  E(vib)   ...       0.00
freq.    3088.90  E(vib)   ...       0.00
freq.    3106.22  E(vib)   ...       0.00
freq.    3128.98  E(vib)   ...       0.00
freq.    3141.40  E(vib)   ...       0.00
freq.    3171.18  E(vib)   ...       0.00
freq.    3183.51  E(vib)   ...       0.00
freq.    3193.66  E(vib)   ...       0.00
freq.    3194.01  E(vib)   ...       0.00
freq.    3552.22  E(vib)   ...       0.00
freq.    3622.43  E(vib)   ...       0.00
freq.    3659.58  E(vib)   ...       0.00
freq.    3661.24  E(vib)   ...       0.00

------------
INNER ENERGY
------------

The inner energy is: U= E(el) + E(ZPE) + E(vib) + E(rot) + E(trans)
    E(el)   - is the total energy from the electronic structure calculation
              = E(kin-el) + E(nuc-el) + E(el-el) + E(nuc-nuc)
    E(ZPE)  - the the zero temperature vibrational energy from the frequency calculation
    E(vib)  - the the finite temperature correction to E(ZPE) due to population
              of excited vibrational states
    E(rot)  - is the rotational thermal energy
    E(trans)- is the translational thermal energy

Summary of contributions to the inner energy U:
Electronic energy                ...   -668.45743692 Eh
Zero point energy                ...      0.27843426 Eh     174.72 kcal/mol
Thermal vibrational correction   ...      0.01422842 Eh       8.93 kcal/mol
Thermal rotational correction    ...      0.00141627 Eh       0.89 kcal/mol
Thermal translational correction ...      0.00141627 Eh       0.89 kcal/mol
-----------------------------------------------------------------------
Total thermal energy                   -668.16194170 Eh

Summary of corrections to the electronic energy:
(perhaps to be used in another calculation)
Total thermal correction                  0.01706096 Eh      10.71 kcal/mol
Non-thermal (ZPE) correction              0.27843426 Eh     174.72 kcal/mol
-----------------------------------------------------------------------
Total correction                          0.29549522 Eh     185.43 kcal/mol

--------
ENTHALPY
--------

The enthalpy is H = U + kB*T
                kB is Boltzmann's constant
Total free energy                 ...   -668.16194170 Eh
Thermal Enthalpy correction       ...      0.00094421 Eh       0.59 kcal/mol
-----------------------------------------------------------------------
Total Enthalpy                    ...   -668.16099749 Eh

Note: Only C1 symmetry has been detected, increase convergence thresholds
      if your molecule has a higher symmetry. Symmetry factor of 1.0 is
      used for the rotational entropy correction.

Note: Rotational entropy computed according to Herzberg
Infrared and Raman Spectra, Chapter V,1, Van Nostrand Reinhold, 1945
Point Group:  C1, Symmetry Number:   1
Rotational constants in cm-1:     0.019936     0.013972     0.009350

                             ****ORCA TERMINATED NORMALLY****
TOTAL RUN TIME: 0 days 0 hours 24 minutes 48 seconds 984 msec
