                         Program Version 5.0.4 -  RELEASE  -
|  1> ! B3LYP EPR-II OPT
|  2> %pal nprocs 16 end
|  3> *XYZFile 0 2 model.xyz
|  4>
|  5>                          ****END OF INPUT****
 Total Charge           Charge          ....    0
 Multiplicity           Mult            ....    2
 Number of Electrons    NEL             ....  109
FINAL SINGLE POINT ENERGY      -668.227920945161
FINAL SINGLE POINT ENERGY      -668.229431825030
FINAL SINGLE POINT ENERGY      -668.229579874400
FINAL SINGLE POINT ENERGY      -668.229659779513
FINAL SINGLE POINT ENERGY      -668.229681028383
FINAL SINGLE POINT ENERGY      -668.229693262250
FINAL SINGLE POINT ENERGY      -668.229706242485
FINAL SINGLE POINT ENERGY      -668.229720185706
FINAL SINGLE POINT ENERGY      -668.229739358000
FINAL SINGLE POINT ENERGY      -668.229756055541
FINAL SINGLE POINT ENERGY      -668.229853698269
FINAL SINGLE POINT ENERGY      -668.229876152659
FINAL SINGLE POINT ENERGY      -668.229911439725
FINAL SINGLE POINT ENERGY      -668.229941448514
FINAL SINGLE POINT ENERGY      -668.229955642326
FINAL SINGLE POINT ENERGY      -668.229965484057
FINAL SINGLE POINT ENERGY      -668.229975185805
FINAL SINGLE POINT ENERGY      -668.229980462103
FINAL SINGLE POINT ENERGY      -668.229985077459
                    ***********************HURRAY********************

CARTESIAN COORDINATES (ANGSTROEM)
---------------------------------
  N     -1.814178    0.779892    0.764814
  C     -1.500883   -0.115836   -0.336227
  C     -1.668918   -1.555964    0.192371
  O     -1.753689   -1.798625    1.398016
  C     -0.082956    0.125341   -0.923496
  C      1.071465   -0.134274    0.057709
  C      2.446848    0.191739   -0.555313
  C      3.587283   -0.089823    0.385637
  N      4.869971    0.371794    0.011668
  H      5.565694    0.260896    0.739680
  H      4.869326    1.331196   -0.317738
  H     -1.862727    0.343021    1.676465
  C     -2.251078    2.058821    0.561943
  N     -1.689268   -2.521826   -0.771209
  H     -1.647817   -2.230715   -1.736025
  O     -2.328752    2.560687   -0.560927
  C     -2.626121    2.837477    1.819736
  H     -1.988544    3.723704    1.882128
  H     -3.659515    3.180114    1.719659
  H     -2.524251    2.255383    2.739497
  C     -1.804349   -3.945220   -0.473501
  H     -2.743000   -4.355139   -0.861708
  H     -0.965806   -4.502123   -0.904231
  H     -1.790485   -4.059403    0.610472
  H     -2.227707    0.061792   -1.138815
  H      0.040574   -0.503114   -1.815708
  H     -0.059638    1.164715   -1.268158
  H      1.062385   -1.184299    0.378597
  H      0.928158    0.468462    0.961021
  H      2.569312   -0.382850   -1.492663
  H      2.467820    1.251645   -0.852548
  H      3.591392   -1.040391    0.917453

 Multiplicity           Mult            ....    2
 Number of Electrons    NEL             ....  109
 Basis Dimension        Dim             ....  364

ORBITAL ENERGIES
----------------
                 SPIN UP ORBITALS
  NO   OCC          E(Eh)            E(eV)
   0   1.0000     -19.120928      -520.3069
   1   1.0000     -19.097824      -519.6782
   2   1.0000     -14.371028      -391.0556
   3   1.0000     -14.347459      -390.4142
   4   1.0000     -14.333861      -390.0442
   5   1.0000     -10.302249      -280.3384
   6   1.0000     -10.286137      -279.9000
   7   1.0000     -10.237210      -278.5686
   8   1.0000     -10.224311      -278.2176
   9   1.0000     -10.198302      -277.5099
  10   1.0000     -10.188188      -277.2347
  11   1.0000     -10.184055      -277.1222
  12   1.0000     -10.181929      -277.0644
  13   1.0000     -10.178610      -276.9740
  14   1.0000      -1.043952       -28.4074
  15   1.0000      -1.019915       -27.7533
  16   1.0000      -0.930485       -25.3198
  17   1.0000      -0.914512       -24.8851
  18   1.0000      -0.896707       -24.4006
  19   1.0000      -0.797660       -21.7054
  20   1.0000      -0.758742       -20.6464
  21   1.0000      -0.725916       -19.7532
  22   1.0000      -0.709699       -19.3119
  23   1.0000      -0.664324       -18.0772
  24   1.0000      -0.612349       -16.6629
  25   1.0000      -0.596452       -16.2303
  26   1.0000      -0.580614       -15.7993
  27   1.0000      -0.561425       -15.2772
  28   1.0000      -0.535884       -14.5821
  29   1.0000      -0.504683       -13.7331
  30   1.0000      -0.479105       -13.0371
  31   1.0000      -0.471070       -12.8185
  32   1.0000      -0.466706       -12.6997
  33   1.0000      -0.460464       -12.5299
  34   1.0000      -0.449907       -12.2426
  35   1.0000      -0.446939       -12.1618
  36   1.0000      -0.441138       -12.0040
  37   1.0000      -0.426140       -11.5959
  38   1.0000      -0.409561       -11.1447
  39   1.0000      -0.402177       -10.9438
  40   1.0000      -0.400178       -10.8894
  41   1.0000      -0.389613       -10.6019
  42   1.0000      -0.382693       -10.4136
  43   1.0000      -0.374610       -10.1937
  44   1.0000      -0.364961        -9.9311
  45   1.0000      -0.356342        -9.6966
  46   1.0000      -0.339437        -9.2366
  47   1.0000      -0.335296        -9.1239
  48   1.0000      -0.326347        -8.8804
  49   1.0000      -0.314353        -8.5540
  50   1.0000      -0.269036        -7.3208
  51   1.0000      -0.268404        -7.3037
  52   1.0000      -0.247387        -6.7318
  53   1.0000      -0.244081        -6.6418
  54   1.0000      -0.143523        -3.9055
  55   0.0000       0.007196         0.1958
  56   0.0000       0.012848         0.3496
  57   0.0000       0.027019         0.7352
  58   0.0000       0.029541         0.8039
  59   0.0000       0.034990         0.9521

                 SPIN DOWN ORBITALS
  NO   OCC          E(Eh)            E(eV)
   0   1.0000     -19.120928      -520.3069
   1   1.0000     -19.097824      -519.6782
   2   1.0000     -14.371028      -391.0556
   3   1.0000     -14.347456      -390.4141
   4   1.0000     -14.329988      -389.9388
   5   1.0000     -10.302249      -280.3384
   6   1.0000     -10.286138      -279.9000
   7   1.0000     -10.237216      -278.5688
   8   1.0000     -10.224311      -278.2176
   9   1.0000     -10.188184      -277.2346
  10   1.0000     -10.186016      -277.1756
  11   1.0000     -10.184055      -277.1222
  12   1.0000     -10.182475      -277.0792
  13   1.0000     -10.178419      -276.9689
  14   1.0000      -1.043952       -28.4074
  15   1.0000      -1.019915       -27.7533
  16   1.0000      -0.930485       -25.3198
  17   1.0000      -0.914506       -24.8850
  18   1.0000      -0.885252       -24.0889
  19   1.0000      -0.796890       -21.6845
  20   1.0000      -0.756669       -20.5900
  21   1.0000      -0.725834       -19.7509
  22   1.0000      -0.706679       -19.2297
  23   1.0000      -0.659890       -17.9565
  24   1.0000      -0.607697       -16.5363
  25   1.0000      -0.596445       -16.2301
  26   1.0000      -0.570188       -15.5156
  27   1.0000      -0.560735       -15.2584
  28   1.0000      -0.535852       -14.5813
  29   1.0000      -0.500822       -13.6281
  30   1.0000      -0.478762       -13.0278
  31   1.0000      -0.470815       -12.8115
  32   1.0000      -0.465897       -12.6777
  33   1.0000      -0.459702       -12.5091
  34   1.0000      -0.448539       -12.2054
  35   1.0000      -0.444989       -12.1088
  36   1.0000      -0.436440       -11.8761
  37   1.0000      -0.425720       -11.5844
  38   1.0000      -0.407083       -11.0773
  39   1.0000      -0.400288       -10.8924
  40   1.0000      -0.399012       -10.8577
  41   1.0000      -0.389209       -10.5909
  42   1.0000      -0.379226       -10.3193
  43   1.0000      -0.373174       -10.1546
  44   1.0000      -0.362064        -9.8523
  45   1.0000      -0.354309        -9.6412
  46   1.0000      -0.335370        -9.1259
  47   1.0000      -0.331325        -9.0158
  48   1.0000      -0.323704        -8.8084
  49   1.0000      -0.284555        -7.7431
  50   1.0000      -0.269031        -7.3207
  51   1.0000      -0.268373        -7.3028
  52   1.0000      -0.247326        -6.7301
  53   1.0000      -0.244077        -6.6417
  54   0.0000      -0.012503        -0.3402
  55   0.0000       0.007294         0.1985
  56   0.0000       0.012977         0.3531
  57   0.0000       0.027208         0.7404
  58   0.0000       0.029602         0.8055

MULLIKEN ATOMIC CHARGES AND SPIN POPULATIONS
--------------------------------------------
   0 N :   -0.115506    0.000022
   1 C :   -0.127612    0.000866
   2 C :    0.088187   -0.000323
   3 O :   -0.333173    0.000030
   4 C :   -0.280710   -0.001181
   5 C :   -0.258128    0.012198
   6 C :   -0.242006   -0.028393
   7 C :   -0.255409    0.820186
   8 N :   -0.399057    0.162170
   9 H :    0.227348   -0.001229
  10 H :    0.225080    0.001927
  11 H :    0.252194   -0.000001
  12 C :    0.170611   -0.000226
  13 N :   -0.091447   -0.000019
  14 H :    0.230113    0.000004
  15 O :   -0.328377    0.000016
  16 C :   -0.553742    0.000068
  17 H :    0.184539    0.000004
  18 H :    0.185514   -0.000001
  19 H :    0.148816    0.000000
  20 C :   -0.458397    0.000007
  21 H :    0.163937   -0.000001
  22 H :    0.160536    0.000000
  23 H :    0.200157    0.000002
  24 H :    0.163593    0.000022
  25 H :    0.126110    0.000186
  26 H :    0.177842    0.000159
  27 H :    0.147775   -0.000478
  28 H :    0.167021   -0.000622
  29 H :    0.137558    0.048327
  30 H :    0.141233    0.011282
  31 H :    0.145401   -0.025003
Sum of atomic charges         :    0.0000000

LOEWDIN ATOMIC CHARGES AND SPIN POPULATIONS
-------------------------------------------
   0 N :    0.064857    0.000071
   1 C :   -0.048640   -0.000030
   2 C :   -0.092602    0.000002
   3 O :   -0.195087   -0.000005
   4 C :   -0.060638    0.001132
   5 C :   -0.069039    0.008889
   6 C :   -0.096569    0.016999
   7 C :   -0.133848    0.718038
   8 N :   -0.016001    0.169631
   9 H :    0.061573    0.008743
  10 H :    0.063216    0.012591
  11 H :    0.090412    0.000006
  12 C :   -0.104705   -0.000012
  13 N :    0.041345   -0.000006
  14 H :    0.079335    0.000020
  15 O :   -0.200023    0.000002
  16 C :   -0.043116    0.000015
  17 H :    0.053735    0.000000
  18 H :    0.054024   -0.000001
  19 H :    0.033607    0.000001
  20 C :    0.010748    0.000002
  21 H :    0.031580   -0.000001
  22 H :    0.031420   -0.000000
  23 H :    0.055051    0.000001
  24 H :    0.066941    0.000024
  25 H :    0.041418    0.000509
  26 H :    0.058470    0.000072
  27 H :    0.047287    0.000055
  28 H :    0.050631    0.000273
  29 H :    0.046497    0.036108
  30 H :    0.045011    0.011559
  31 H :    0.033111    0.015310

  Mayer bond orders larger than 0.100000
B(  0-N ,  1-C ) :   1.0213 B(  0-N , 11-H ) :   0.8930 B(  0-N , 12-C ) :   1.2097
B(  1-C ,  2-C ) :   0.9000 B(  1-C ,  4-C ) :   0.9282 B(  1-C , 15-O ) :   0.1443
B(  1-C , 24-H ) :   0.9723 B(  2-C ,  3-O ) :   1.8700 B(  2-C , 13-N ) :   1.1835
B(  4-C ,  5-C ) :   0.9602 B(  4-C , 25-H ) :   0.9778 B(  4-C , 26-H ) :   0.9640
B(  5-C ,  6-C ) :   0.9714 B(  5-C , 27-H ) :   0.9660 B(  5-C , 28-H ) :   0.9685
B(  6-C ,  7-C ) :   0.9851 B(  6-C , 29-H ) :   0.9612 B(  6-C , 30-H ) :   0.9724
B(  7-C ,  8-N ) :   1.1764 B(  7-C , 31-H ) :   0.9720 B(  8-N ,  9-H ) :   0.9420
B(  8-N , 10-H ) :   0.9416 B( 12-C , 15-O ) :   1.8574 B( 12-C , 16-C ) :   0.8940
B( 13-N , 14-H ) :   0.9300 B( 13-N , 20-C ) :   0.9708 B( 16-C , 17-H ) :   0.9592
B( 16-C , 18-H ) :   0.9593 B( 16-C , 19-H ) :   0.9758 B( 20-C , 21-H ) :   0.9602
B( 20-C , 22-H ) :   0.9596 B( 20-C , 23-H ) :   0.9431

FINAL SINGLE POINT ENERGY      -668.229987192557

DIPOLE MOMENT
-------------
                                X             Y             Z
Electronic contribution:     -7.52992       1.44738       0.62751
Nuclear contribution   :      8.11043      -2.36387      -0.81107
                        -----------------------------------------
Total Dipole Moment    :      0.58051      -0.91649      -0.18356
                        -----------------------------------------
Magnitude (a.u.)       :      1.10029
Magnitude (Debye)      :      2.79672

Rotational constants in cm-1:     0.019633     0.013267     0.008989
Rotational constants in MHz :   588.584848   397.732901   269.485324

                             ****ORCA TERMINATED NORMALLY****
TOTAL RUN TIME: 0 days 0 hours 15 minutes 32 seconds 834 msec
