                         Program Version 5.0.4 -  RELEASE  -
|  1> ! B3LYP EPR-II AUTOAUX
|  2> %pal nprocs 16 end
|  3> *XYZFile -1 2 opt.xyz
|  4> %EPRNMR
|  5>         GTENSOR   TRUE
|  6>         NUCLEI    = 1,4,7,8,10,11,12,14,15,16,25,26 {SHIFT, AISO, ADIP, AORB}
|  7>         ORI       GIAO
|  8> END
|  9>
| 10>                          ****END OF INPUT****

CARTESIAN COORDINATES (ANGSTROEM)
---------------------------------
  N     -1.956213    0.056226   -0.349043
  C     -0.548821   -0.028117    0.044993
  C      0.071541    1.350862   -0.317221
  O     -0.515257    2.127691   -1.096093
  C      0.147659   -1.200663   -0.622397
  C      1.626082   -1.338837   -0.775019
  H      1.856769   -2.214616   -1.386046
  H      2.059502   -0.452311   -1.259433
  C      2.419369   -1.513246    0.605067
  O      2.354866   -0.513078    1.398127
  O      3.023772   -2.586385    0.764564
  H     -2.126413    0.786803   -1.031027
  C     -2.987746   -0.536305    0.302835
  N      1.248909    1.605190    0.275712
  H      1.721175    0.799812    0.790132
  O     -2.860567   -1.308073    1.257907
  C     -4.379894   -0.199066   -0.245740
  H     -4.982467    0.209880    0.570319
  H     -4.362937    0.512374   -1.076493
  H     -4.853824   -1.127928   -0.576506
  C      1.999677    2.806579   -0.048946
  H      1.472229    3.708648    0.283039
  H      2.965996    2.753778    0.458360
  H      2.165745    2.900876   -1.129339
  H     -0.503455   -0.150770    1.137599
  H     -0.453289   -2.108595   -0.644825

 Total Charge           Charge          ....   -1
 Multiplicity           Mult            ....    2
 Number of Electrons    NEL             ....  107
 Basis Dimension        Dim             ....  322

ORBITAL ENERGIES
----------------
                 SPIN UP ORBITALS
  NO   OCC          E(Eh)            E(eV)
   0   1.0000     -18.993365      -516.8357
   1   1.0000     -18.992041      -516.7997
   2   1.0000     -18.939806      -515.3783
   3   1.0000     -18.935575      -515.2632
   4   1.0000     -14.238609      -387.4522
   5   1.0000     -14.215173      -386.8145
   6   1.0000     -10.183360      -277.1033
   7   1.0000     -10.167349      -276.6676
   8   1.0000     -10.132962      -275.7319
   9   1.0000     -10.113817      -275.2110
  10   1.0000     -10.102127      -274.8928
  11   1.0000     -10.094761      -274.6924
  12   1.0000     -10.069370      -274.0015
  13   1.0000     -10.049640      -273.4646
  14   1.0000      -0.915908       -24.9231
  15   1.0000      -0.906004       -24.6536
  16   1.0000      -0.871581       -23.7169
  17   1.0000      -0.804197       -21.8833
  18   1.0000      -0.794520       -21.6200
  19   1.0000      -0.781038       -21.2531
  20   1.0000      -0.666398       -18.1336
  21   1.0000      -0.629181       -17.1209
  22   1.0000      -0.599166       -16.3041
  23   1.0000      -0.563017       -15.3205
  24   1.0000      -0.485823       -13.2199
  25   1.0000      -0.458992       -12.4898
  26   1.0000      -0.436665       -11.8823
  27   1.0000      -0.413263       -11.2455
  28   1.0000      -0.367649       -10.0042
  29   1.0000      -0.358641        -9.7591
  30   1.0000      -0.352123        -9.5818
  31   1.0000      -0.339340        -9.2339
  32   1.0000      -0.337135        -9.1739
  33   1.0000      -0.331739        -9.0271
  34   1.0000      -0.315601        -8.5879
  35   1.0000      -0.303855        -8.2683
  36   1.0000      -0.299611        -8.1528
  37   1.0000      -0.291433        -7.9303
  38   1.0000      -0.279843        -7.6149
  39   1.0000      -0.268966        -7.3189
  40   1.0000      -0.265172        -7.2157
  41   1.0000      -0.254065        -6.9135
  42   1.0000      -0.250503        -6.8165
  43   1.0000      -0.240584        -6.5466
  44   1.0000      -0.220404        -5.9975
  45   1.0000      -0.210402        -5.7253
  46   1.0000      -0.148639        -4.0447
  47   1.0000      -0.143814        -3.9134
  48   1.0000      -0.139425        -3.7939
  49   1.0000      -0.129486        -3.5235
  50   1.0000      -0.111577        -3.0362
  51   1.0000      -0.102565        -2.7909
  52   1.0000      -0.088205        -2.4002
  53   1.0000      -0.045348        -1.2340
  54   0.0000       0.105903         2.8818
  55   0.0000       0.118746         3.2312
  56   0.0000       0.133798         3.6408
  57   0.0000       0.144999         3.9456
  58   0.0000       0.155286         4.2256

                 SPIN DOWN ORBITALS
  NO   OCC          E(Eh)            E(eV)
   0   1.0000     -18.993291      -516.8337
   1   1.0000     -18.991984      -516.7982
   2   1.0000     -18.939371      -515.3665
   3   1.0000     -18.934627      -515.2374
   4   1.0000     -14.238229      -387.4419
   5   1.0000     -14.215137      -386.8136
   6   1.0000     -10.183399      -277.1044
   7   1.0000     -10.167037      -276.6591
   8   1.0000     -10.131454      -275.6909
   9   1.0000     -10.114550      -275.2309
  10   1.0000     -10.102112      -274.8924
  11   1.0000     -10.094745      -274.6920
  12   1.0000     -10.056488      -273.6509
  13   1.0000     -10.050245      -273.4811
  14   1.0000      -0.915700       -24.9175
  15   1.0000      -0.905836       -24.6490
  16   1.0000      -0.869701       -23.6658
  17   1.0000      -0.803303       -21.8590
  18   1.0000      -0.793474       -21.5915
  19   1.0000      -0.780133       -21.2285
  20   1.0000      -0.659307       -17.9407
  21   1.0000      -0.623811       -16.9748
  22   1.0000      -0.595422       -16.2023
  23   1.0000      -0.561679       -15.2841
  24   1.0000      -0.478348       -13.0165
  25   1.0000      -0.453312       -12.3353
  26   1.0000      -0.430424       -11.7124
  27   1.0000      -0.412140       -11.2149
  28   1.0000      -0.367048        -9.9879
  29   1.0000      -0.353174        -9.6104
  30   1.0000      -0.349771        -9.5178
  31   1.0000      -0.338367        -9.2074
  32   1.0000      -0.336266        -9.1503
  33   1.0000      -0.328139        -8.9291
  34   1.0000      -0.312581        -8.5058
  35   1.0000      -0.301712        -8.2100
  36   1.0000      -0.298402        -8.1199
  37   1.0000      -0.288724        -7.8566
  38   1.0000      -0.278253        -7.5716
  39   1.0000      -0.267288        -7.2733
  40   1.0000      -0.262263        -7.1365
  41   1.0000      -0.252937        -6.8828
  42   1.0000      -0.248249        -6.7552
  43   1.0000      -0.237917        -6.4741
  44   1.0000      -0.217711        -5.9242
  45   1.0000      -0.207235        -5.6392
  46   1.0000      -0.147273        -4.0075
  47   1.0000      -0.142676        -3.8824
  48   1.0000      -0.137045        -3.7292
  49   1.0000      -0.128668        -3.5012
  50   1.0000      -0.101892        -2.7726
  51   1.0000      -0.095301        -2.5933
  52   1.0000      -0.080510        -2.1908
  53   0.0000       0.074024         2.0143
  54   0.0000       0.106669         2.9026
  55   0.0000       0.118768         3.2319
  56   0.0000       0.135924         3.6987
  57   0.0000       0.145686         3.9643

MULLIKEN ATOMIC CHARGES AND SPIN POPULATIONS
--------------------------------------------
   0 N :   -0.102484    0.010301
   1 C :   -0.110382   -0.030197
   2 C :    0.055919    0.007679
   3 O :   -0.408569    0.000628
   4 C :   -0.154952    0.930872
   5 C :   -0.357386   -0.057992
   6 H :    0.133690    0.005611
   7 H :    0.144778    0.029054
   8 C :    0.125200    0.044841
   9 O :   -0.418545    0.020520
  10 O :   -0.393800    0.036104
  11 H :    0.237093    0.000721
  12 C :    0.148536   -0.006945
  13 N :   -0.047504   -0.000226
  14 H :    0.272688   -0.000113
  15 O :   -0.337332    0.001980
  16 C :   -0.576626    0.001803
  17 H :    0.173246   -0.000090
  18 H :    0.145611   -0.000046
  19 H :    0.174114   -0.000024
  20 C :   -0.479629    0.001212
  21 H :    0.155471   -0.000039
  22 H :    0.149031   -0.000040
  23 H :    0.156668   -0.000060
  24 H :    0.191278    0.043395
  25 H :    0.123886   -0.038949
Sum of atomic charges         :   -1.0000000

LOEWDIN ATOMIC CHARGES AND SPIN POPULATIONS
-------------------------------------------
   0 N :    0.070142    0.012772
   1 C :   -0.051786    0.018194
   2 C :   -0.099621    0.011390
   3 O :   -0.248941    0.001579
   4 C :   -0.053812    0.764648
   5 C :   -0.087848    0.017474
   6 H :    0.044416    0.003866
   7 H :    0.049093    0.021705
   8 C :   -0.173085    0.057505
   9 O :   -0.298965    0.014074
  10 O :   -0.264460    0.029807
  11 H :    0.086040    0.000176
  12 C :   -0.119204   -0.000614
  13 N :    0.031163    0.000401
  14 H :    0.075331    0.000172
  15 O :   -0.213966    0.001991
  16 C :   -0.059729    0.000739
  17 H :    0.046167   -0.000071
  18 H :    0.029342    0.000036
  19 H :    0.046326   -0.000052
  20 C :   -0.017737    0.000873
  21 H :    0.028223   -0.000042
  22 H :    0.031944   -0.000003
  23 H :    0.030842   -0.000050
  24 H :    0.079500    0.034228
  25 H :    0.040625    0.009202

  Mayer bond orders larger than 0.100000
B(  0-N ,  1-C ) :   0.9572 B(  0-N , 11-H ) :   0.8920 B(  0-N , 12-C ) :   1.2459
B(  1-C ,  2-C ) :   0.8990 B(  1-C ,  4-C ) :   1.0099 B(  1-C , 15-O ) :   0.1311
B(  1-C , 24-H ) :   0.9597 B(  2-C ,  3-O ) :   1.7619 B(  2-C , 13-N ) :   1.3116
B(  4-C ,  5-C ) :   1.0424 B(  4-C , 25-H ) :   0.9865 B(  5-C ,  6-H ) :   0.9946
B(  5-C ,  7-H ) :   0.9650 B(  5-C ,  8-C ) :   0.8373 B(  8-C ,  9-O ) :   1.4758
B(  8-C , 10-O ) :   1.7242 B(  9-O , 14-H ) :   0.2278 B( 12-C , 15-O ) :   1.8399
B( 12-C , 16-C ) :   0.8773 B( 13-N , 14-H ) :   0.7377 B( 13-N , 20-C ) :   0.9595
B( 16-C , 17-H ) :   0.9681 B( 16-C , 18-H ) :   0.9782 B( 16-C , 19-H ) :   0.9670
B( 20-C , 21-H ) :   0.9622 B( 20-C , 22-H ) :   0.9709 B( 20-C , 23-H ) :   0.9573

FINAL SINGLE POINT ENERGY      -722.310056490696

DIPOLE MOMENT
-------------
                                X             Y             Z
Electronic contribution:      2.40893      -4.05639       3.14249
Nuclear contribution   :     -4.54576       6.12053      -4.69924
                        -----------------------------------------
Total Dipole Moment    :     -2.13683       2.06414      -1.55675
                        -----------------------------------------
Magnitude (a.u.)       :      3.35413
Magnitude (Debye)      :      8.52552

Rotational constants in cm-1:     0.028832     0.014873     0.010965
Rotational constants in MHz :   864.360366   445.872969   328.719365

CHEMICAL SHIELDING SUMMARY (ppm)  --  Orbital contribution
----------------------------------------------------------

  Nucleus  Element    Isotropic     Anisotropy
  -------  -------  ------------   ------------
      0       N          117.328        101.369
      3       O           -7.258        549.869
      6       H           29.158          4.961
      7       H           28.722          2.290
      9       O           26.511        241.226
     10       O          -38.885       -296.011
     11       H           25.047          8.807
     13       N          130.067         75.542
     14       H           16.674         22.965
     15       O          -47.175        262.417
     24       H           26.305          3.487
     25       H           27.364          6.820

                             ****ORCA TERMINATED NORMALLY****
TOTAL RUN TIME: 0 days 0 hours 5 minutes 19 seconds 466 msec
