                         Program Version 5.0.4 -  RELEASE  -
|  1> ! M062X def2-TZVP OPT FREQ
|  2> %pal nprocs 16 end
|  3> *XYZFile -1 2 opt.xyz
|  4>
|  5>                          ****END OF INPUT****
 Total Charge           Charge          ....   -1
 Multiplicity           Mult            ....    2
 Number of Electrons    NEL             ....  107
FINAL SINGLE POINT ENERGY      -722.541166529700
FINAL SINGLE POINT ENERGY      -722.524738677689
FINAL SINGLE POINT ENERGY      -722.535783968319
FINAL SINGLE POINT ENERGY      -722.538192961734
FINAL SINGLE POINT ENERGY      -722.543396037576
FINAL SINGLE POINT ENERGY      -722.540048971409
FINAL SINGLE POINT ENERGY      -722.543972329839
FINAL SINGLE POINT ENERGY      -722.541608474866
FINAL SINGLE POINT ENERGY      -722.544249710069
FINAL SINGLE POINT ENERGY      -722.544286282999
FINAL SINGLE POINT ENERGY      -722.544301427010
FINAL SINGLE POINT ENERGY      -722.544322238618
FINAL SINGLE POINT ENERGY      -722.544333820884
FINAL SINGLE POINT ENERGY      -722.544342767750
FINAL SINGLE POINT ENERGY      -722.544347355778
FINAL SINGLE POINT ENERGY      -722.544343380122
FINAL SINGLE POINT ENERGY      -722.544322935592
FINAL SINGLE POINT ENERGY      -722.544312333227
FINAL SINGLE POINT ENERGY      -722.544299178067
                    ***********************HURRAY********************

CARTESIAN COORDINATES (ANGSTROEM)
---------------------------------
  N     -1.953118    0.119628   -0.316779
  C     -0.558221    0.021326    0.071780
  C      0.095176    1.358780   -0.308995
  O     -0.434199    2.112366   -1.126026
  C      0.107855   -1.155314   -0.587155
  C      1.570947   -1.291818   -0.778567
  H      1.788791   -2.149129   -1.412450
  H      1.987111   -0.395181   -1.251093
  C      2.371285   -1.495916    0.566241
  O      2.258846   -0.553378    1.404094
  O      3.025798   -2.528731    0.668799
  H     -2.128592    0.789712   -1.051709
  C     -2.959180   -0.505275    0.318169
  N      1.248442    1.594781    0.307235
  H      1.689662    0.777274    0.835682
  O     -2.807914   -1.242464    1.277263
  C     -4.342915   -0.252079   -0.251321
  H     -4.999665    0.049303    0.563193
  H     -4.355455    0.504888   -1.033841
  H     -4.721338   -1.191652   -0.654242
  C      2.027305    2.752160   -0.054082
  H      1.471822    3.671028    0.143852
  H      2.942060    2.750517    0.535696
  H      2.284773    2.748075   -1.117365
  H     -0.511855   -0.091825    1.161874
  H     -0.495016   -2.056347   -0.579726

 Multiplicity           Mult            ....    2
 Number of Electrons    NEL             ....  107
 Basis Dimension        Dim             ....  506

ORBITAL ENERGIES
----------------
                 SPIN UP ORBITALS
  NO   OCC          E(Eh)            E(eV)
   0   1.0000     -19.477158      -530.0004
   1   1.0000     -19.474335      -529.9236
   2   1.0000     -19.421296      -528.4803
   3   1.0000     -19.413982      -528.2813
   4   1.0000     -14.656360      -398.8198
   5   1.0000     -14.627209      -398.0266
   6   1.0000     -10.533195      -286.6228
   7   1.0000     -10.514567      -286.1159
   8   1.0000     -10.478890      -285.1451
   9   1.0000     -10.463040      -284.7138
  10   1.0000     -10.452174      -284.4181
  11   1.0000     -10.446285      -284.2579
  12   1.0000     -10.422916      -283.6220
  13   1.0000     -10.397527      -282.9311
  14   1.0000      -1.051361       -28.6090
  15   1.0000      -1.039418       -28.2840
  16   1.0000      -1.006299       -27.3828
  17   1.0000      -0.923450       -25.1283
  18   1.0000      -0.918236       -24.9865
  19   1.0000      -0.898522       -24.4500
  20   1.0000      -0.775600       -21.1051
  21   1.0000      -0.733321       -19.9547
  22   1.0000      -0.698570       -19.0091
  23   1.0000      -0.658197       -17.9104
  24   1.0000      -0.577812       -15.7231
  25   1.0000      -0.547424       -14.8962
  26   1.0000      -0.524416       -14.2701
  27   1.0000      -0.500201       -13.6112
  28   1.0000      -0.453064       -12.3285
  29   1.0000      -0.445804       -12.1310
  30   1.0000      -0.438448       -11.9308
  31   1.0000      -0.421677       -11.4744
  32   1.0000      -0.421084       -11.4583
  33   1.0000      -0.408421       -11.1137
  34   1.0000      -0.391820       -10.6620
  35   1.0000      -0.384908       -10.4739
  36   1.0000      -0.376300       -10.2397
  37   1.0000      -0.373435       -10.1617
  38   1.0000      -0.353863        -9.6291
  39   1.0000      -0.346380        -9.4255
  40   1.0000      -0.343086        -9.3358
  41   1.0000      -0.333792        -9.0829
  42   1.0000      -0.328015        -8.9258
  43   1.0000      -0.316953        -8.6247
  44   1.0000      -0.296623        -8.0715
  45   1.0000      -0.283625        -7.7178
  46   1.0000      -0.226422        -6.1612
  47   1.0000      -0.221929        -6.0390
  48   1.0000      -0.211086        -5.7439
  49   1.0000      -0.195245        -5.3129
  50   1.0000      -0.186363        -5.0712
  51   1.0000      -0.174984        -4.7616
  52   1.0000      -0.168165        -4.5760
  53   1.0000      -0.105625        -2.8742
  54   0.0000       0.161424         4.3926
  55   0.0000       0.171501         4.6668
  56   0.0000       0.179308         4.8792
  57   0.0000       0.186693         5.0802
  58   0.0000       0.207884         5.6568

                 SPIN DOWN ORBITALS
  NO   OCC          E(Eh)            E(eV)
   0   1.0000     -19.477092      -529.9986
   1   1.0000     -19.474304      -529.9227
   2   1.0000     -19.421080      -528.4744
   3   1.0000     -19.413497      -528.2681
   4   1.0000     -14.655996      -398.8099
   5   1.0000     -14.627185      -398.0259
   6   1.0000     -10.533216      -286.6234
   7   1.0000     -10.514360      -286.1103
   8   1.0000     -10.477803      -285.1155
   9   1.0000     -10.463680      -284.7312
  10   1.0000     -10.452167      -284.4179
  11   1.0000     -10.446274      -284.2576
  12   1.0000     -10.416185      -283.4388
  13   1.0000     -10.398133      -282.9476
  14   1.0000      -1.051096       -28.6018
  15   1.0000      -1.039230       -28.2789
  16   1.0000      -1.004502       -27.3339
  17   1.0000      -0.922119       -25.0921
  18   1.0000      -0.916964       -24.9519
  19   1.0000      -0.898099       -24.4385
  20   1.0000      -0.766561       -20.8592
  21   1.0000      -0.726878       -19.7793
  22   1.0000      -0.694510       -18.8986
  23   1.0000      -0.656362       -17.8605
  24   1.0000      -0.568896       -15.4804
  25   1.0000      -0.539874       -14.6907
  26   1.0000      -0.517828       -14.0908
  27   1.0000      -0.498321       -13.5600
  28   1.0000      -0.451861       -12.2958
  29   1.0000      -0.439145       -11.9497
  30   1.0000      -0.435014       -11.8373
  31   1.0000      -0.420546       -11.4436
  32   1.0000      -0.419155       -11.4058
  33   1.0000      -0.404871       -11.0171
  34   1.0000      -0.387391       -10.5415
  35   1.0000      -0.381865       -10.3911
  36   1.0000      -0.375034       -10.2052
  37   1.0000      -0.368646       -10.0314
  38   1.0000      -0.352106        -9.5813
  39   1.0000      -0.344084        -9.3630
  40   1.0000      -0.340988        -9.2788
  41   1.0000      -0.332481        -9.0473
  42   1.0000      -0.325910        -8.8685
  43   1.0000      -0.313465        -8.5298
  44   1.0000      -0.292422        -7.9572
  45   1.0000      -0.279994        -7.6190
  46   1.0000      -0.224990        -6.1223
  47   1.0000      -0.220277        -5.9940
  48   1.0000      -0.207519        -5.6469
  49   1.0000      -0.194157        -5.2833
  50   1.0000      -0.174905        -4.7594
  51   1.0000      -0.169554        -4.6138
  52   1.0000      -0.158646        -4.3170
  53   0.0000       0.110101         2.9960
  54   0.0000       0.161937         4.4065
  55   0.0000       0.173083         4.7098
  56   0.0000       0.177969         4.8428
  57   0.0000       0.187378         5.0988

MULLIKEN ATOMIC CHARGES AND SPIN POPULATIONS
--------------------------------------------
   0 N :   -0.351171    0.005958
   1 C :   -0.079383   -0.022324
   2 C :    0.374170   -0.010718
   3 O :   -0.484750    0.002267
   4 C :   -0.214303    0.981233
   5 C :   -0.368565   -0.071843
   6 H :    0.106014    0.007321
   7 H :    0.132872    0.023332
   8 C :    0.370538    0.051752
   9 O :   -0.559538    0.010616
  10 O :   -0.465499    0.020590
  11 H :    0.248958    0.001990
  12 C :    0.377189   -0.003161
  13 N :   -0.369424   -0.000303
  14 H :    0.338289   -0.000891
  15 O :   -0.425246    0.002723
  16 C :   -0.464342   -0.000055
  17 H :    0.141539    0.000000
  18 H :    0.117865    0.000214
  19 H :    0.142543    0.000123
  20 C :   -0.308710    0.001028
  21 H :    0.129690   -0.000034
  22 H :    0.135949    0.000002
  23 H :    0.129728    0.000052
  24 H :    0.192046    0.041088
  25 H :    0.153542   -0.040960
Sum of atomic charges         :   -1.0000000

LOEWDIN ATOMIC CHARGES AND SPIN POPULATIONS
-------------------------------------------
   0 N :    0.154209    0.009943
   1 C :   -0.252051    0.065305
   2 C :   -0.449768    0.007476
   3 O :   -0.003605    0.001296
   4 C :   -0.119503    0.727564
   5 C :   -0.273651    0.060612
   6 H :    0.137492    0.003340
   7 H :    0.141841    0.014821
   8 C :   -0.639518    0.048557
   9 O :   -0.086147    0.009287
  10 O :   -0.031527    0.017976
  11 H :    0.190000    0.001403
  12 C :   -0.499288   -0.000037
  13 N :    0.097930    0.000631
  14 H :    0.186189    0.000128
  15 O :    0.034334    0.002036
  16 C :   -0.276006    0.000172
  17 H :    0.129423   -0.000048
  18 H :    0.116353    0.000060
  19 H :    0.130989    0.000022
  20 C :   -0.328662    0.000527
  21 H :    0.111856    0.000005
  22 H :    0.114714   -0.000003
  23 H :    0.109118    0.000005
  24 H :    0.173250    0.028331
  25 H :    0.132029    0.000591

  Mayer bond orders larger than 0.100000
B(  0-N ,  1-C ) :   0.8443 B(  0-N , 11-H ) :   0.8782 B(  0-N , 12-C ) :   1.2610
B(  1-C ,  2-C ) :   0.9052 B(  1-C ,  4-C ) :   0.9904 B(  1-C , 24-H ) :   0.9750
B(  2-C ,  3-O ) :   1.8569 B(  2-C , 13-N ) :   1.3375 B(  4-C ,  5-C ) :   1.0189
B(  4-C , 25-H ) :   0.9608 B(  5-C ,  6-H ) :   0.9741 B(  5-C ,  7-H ) :   0.9544
B(  5-C ,  8-C ) :   0.8904 B(  8-C ,  9-O ) :   1.5440 B(  8-C , 10-O ) :   1.9398
B(  9-O , 14-H ) :   0.2125 B( 12-C , 15-O ) :   1.9498 B( 12-C , 16-C ) :   0.9071
B( 13-N , 14-H ) :   0.7238 B( 13-N , 20-C ) :   0.9541 B( 16-C , 17-H ) :   0.9736
B( 16-C , 18-H ) :   0.9789 B( 16-C , 19-H ) :   0.9642 B( 20-C , 21-H ) :   0.9727
B( 20-C , 22-H ) :   0.9732 B( 20-C , 23-H ) :   0.9718

FINAL SINGLE POINT ENERGY      -722.544301600551

DIPOLE MOMENT
-------------
                                X             Y             Z
Electronic contribution:      2.25117      -3.82081       3.13385
Nuclear contribution   :     -4.56492       5.77080      -4.67854
                        -----------------------------------------
Total Dipole Moment    :     -2.31375       1.94999      -1.54469
                        -----------------------------------------
Magnitude (a.u.)       :      3.39735
Magnitude (Debye)      :      8.63536

VIBRATIONAL FREQUENCIES
-----------------------

Scaling factor for frequencies =  1.000000000  (already applied!)

   0:         0.00 cm**-1
   1:         0.00 cm**-1
   2:         0.00 cm**-1
   3:         0.00 cm**-1
   4:         0.00 cm**-1
   5:         0.00 cm**-1
   6:        34.53 cm**-1
   7:        48.79 cm**-1
   8:        67.82 cm**-1
   9:        78.54 cm**-1
  10:        82.62 cm**-1
  11:       101.06 cm**-1
  12:       118.44 cm**-1
  13:       144.70 cm**-1
  14:       167.90 cm**-1
  15:       192.39 cm**-1
  16:       221.32 cm**-1
  17:       230.45 cm**-1
  18:       264.01 cm**-1
  19:       303.66 cm**-1
  20:       361.73 cm**-1
  21:       367.09 cm**-1
  22:       390.12 cm**-1
  23:       476.34 cm**-1
  24:       509.72 cm**-1
  25:       536.70 cm**-1
  26:       564.10 cm**-1
  27:       624.02 cm**-1
  28:       642.51 cm**-1
  29:       661.39 cm**-1
  30:       699.99 cm**-1
  31:       790.17 cm**-1
  32:       794.82 cm**-1
  33:       874.60 cm**-1
  34:       893.63 cm**-1
  35:       925.80 cm**-1
  36:       995.06 cm**-1
  37:      1003.35 cm**-1
  38:      1038.80 cm**-1
  39:      1058.65 cm**-1
  40:      1082.95 cm**-1
  41:      1103.60 cm**-1
  42:      1150.17 cm**-1
  43:      1156.89 cm**-1
  44:      1162.11 cm**-1
  45:      1197.82 cm**-1
  46:      1199.43 cm**-1
  47:      1233.14 cm**-1
  48:      1264.19 cm**-1
  49:      1294.39 cm**-1
  50:      1324.45 cm**-1
  51:      1340.41 cm**-1
  52:      1389.54 cm**-1
  53:      1392.93 cm**-1
  54:      1429.88 cm**-1
  55:      1454.16 cm**-1
  56:      1474.16 cm**-1
  57:      1477.31 cm**-1
  58:      1487.49 cm**-1
  59:      1489.80 cm**-1
  60:      1513.80 cm**-1
  61:      1559.57 cm**-1
  62:      1676.75 cm**-1
  63:      1729.97 cm**-1
  64:      1755.71 cm**-1
  65:      1776.90 cm**-1
  66:      2526.43 cm**-1
  67:      3046.03 cm**-1
  68:      3049.21 cm**-1
  69:      3051.73 cm**-1
  70:      3081.78 cm**-1
  71:      3106.20 cm**-1
  72:      3145.56 cm**-1
  73:      3162.60 cm**-1
  74:      3164.94 cm**-1
  75:      3175.06 cm**-1
  76:      3187.41 cm**-1
  77:      3608.98 cm**-1

IR SPECTRUM
-----------

 Mode   freq       eps      Int      T**2         TX        TY        TZ
       cm**-1   L/(mol*cm) km/mol    a.u.
----------------------------------------------------------------------------
  6:     34.53   0.000554    2.80  0.005003  (-0.046421 -0.052985 -0.006418)
  7:     48.79   0.000314    1.59  0.002011  (-0.030384  0.005659  0.032486)
  8:     67.82   0.000307    1.55  0.001414  ( 0.012053 -0.021833 -0.028147)
  9:     78.54   0.000184    0.93  0.000731  (-0.001083  0.019459  0.018735)
 10:     82.62   0.000093    0.47  0.000351  ( 0.009352  0.013968  0.008288)
 11:    101.06   0.001232    6.22  0.003803  ( 0.026728 -0.030819 -0.046251)
 12:    118.44   0.000758    3.83  0.001998  ( 0.031501 -0.017868 -0.026205)
 13:    144.70   0.003820   19.30  0.008238  ( 0.065138  0.061110 -0.016142)
 14:    167.90   0.000252    1.27  0.000468  ( 0.015903 -0.014334 -0.003136)
 15:    192.39   0.006810   34.41  0.011045  ( 0.042628 -0.095626  0.009145)
 16:    221.32   0.006604   33.38  0.009312  ( 0.075328 -0.055584  0.023414)
 17:    230.45   0.001749    8.84  0.002368  ( 0.000404 -0.046070 -0.015676)
 18:    264.01   0.001713    8.66  0.002025  ( 0.023424  0.038248 -0.003661)
 19:    303.66   0.001229    6.21  0.001263  ( 0.004253  0.035283  0.000071)
 20:    361.73   0.000741    3.74  0.000639  (-0.023919 -0.000269 -0.008179)
 21:    367.09   0.003301   16.68  0.002806  ( 0.012199  0.051048 -0.007184)
 22:    390.12   0.001892    9.56  0.001513  ( 0.021151  0.032640  0.000724)
 23:    476.34   0.002189   11.06  0.001434  ( 0.034149 -0.008197  0.014162)
 24:    509.72   0.000904    4.57  0.000553  ( 0.019587  0.009249 -0.009177)
 25:    536.70   0.007340   37.10  0.004268  (-0.034452  0.047605  0.028544)
 26:    564.10   0.010300   52.05  0.005698  ( 0.033650  0.036896  0.056607)
 27:    624.02   0.005221   26.38  0.002611  ( 0.010700 -0.041670  0.027567)
 28:    642.51   0.003835   19.38  0.001863  ( 0.011307 -0.012736 -0.039658)
 29:    661.39   0.000638    3.22  0.000301  ( 0.013624  0.010602  0.001742)
 30:    699.99   0.001895    9.58  0.000845  ( 0.014675 -0.014021 -0.020809)
 31:    790.17   0.000368    1.86  0.000145  (-0.002533  0.009506  0.006961)
 32:    794.82   0.005099   25.77  0.002002  ( 0.037644 -0.003529  0.023928)
 33:    874.60   0.016607   83.92  0.005925  (-0.054046  0.023445 -0.049545)
 34:    893.63   0.003882   19.62  0.001356  ( 0.021311 -0.030027 -0.000020)
 35:    925.80   0.003012   15.22  0.001015  ( 0.022785 -0.021115  0.007083)
 36:    995.06   0.002524   12.75  0.000791  (-0.025069 -0.000156 -0.012767)
 37:   1003.35   0.001526    7.71  0.000475  (-0.018227 -0.008767  0.008102)
 38:   1038.80   0.004883   24.68  0.001467  ( 0.034971 -0.015393  0.002656)
 39:   1058.65   0.000756    3.82  0.000223  (-0.002160 -0.008999 -0.011712)
 40:   1082.95   0.018226   92.11  0.005252  (-0.012899  0.062855  0.033687)
 41:   1103.60   0.009216   46.58  0.002606  ( 0.019018 -0.041911 -0.022088)
 42:   1150.17   0.001686    8.52  0.000457  ( 0.000725  0.020136  0.007172)
 43:   1156.89   0.003101   15.67  0.000836  (-0.024719  0.012457 -0.008380)
 44:   1162.11   0.000228    1.15  0.000061  ( 0.007137 -0.003213 -0.000125)
 45:   1197.82   0.000986    4.98  0.000257  (-0.009051  0.006660 -0.011424)
 46:   1199.43   0.004295   21.71  0.001118  ( 0.027633 -0.018552 -0.003129)
 47:   1233.14   0.010114   51.11  0.002559  (-0.029502 -0.009978 -0.039868)
 48:   1264.19   0.002232   11.28  0.000551  ( 0.013803 -0.015780 -0.010554)
 49:   1294.39   0.001201    6.07  0.000290  ( 0.015769  0.003125  0.005586)
 50:   1324.45   0.000217    1.10  0.000051  ( 0.004675  0.004746  0.002598)
 51:   1340.41   0.012757   64.47  0.002970  ( 0.010096  0.010719  0.052471)
 52:   1389.54   0.029527  149.22  0.006631  ( 0.046716  0.051386  0.042523)
 53:   1392.93   0.013715   69.31  0.003073  ( 0.041063  0.023629  0.028776)
 54:   1429.88   0.020909  105.66  0.004563  ( 0.066469  0.011916 -0.001774)
 55:   1454.16   0.001214    6.14  0.000261  (-0.013802 -0.005241  0.006530)
 56:   1474.16   0.001633    8.25  0.000346  ( 0.006897 -0.005490 -0.016369)
 57:   1477.31   0.001330    6.72  0.000281  (-0.007504 -0.000494  0.014983)
 58:   1487.49   0.004172   21.08  0.000875  (-0.014791 -0.021674  0.013660)
 59:   1489.80   0.001384    6.99  0.000290  (-0.001137  0.007084  0.015441)
 60:   1513.80   0.000779    3.94  0.000161  ( 0.000412  0.012565  0.001608)
 61:   1559.57   0.092442  467.16  0.018497  ( 0.133491  0.022085 -0.013769)
 62:   1676.75   0.055251  279.22  0.010283  ( 0.028585  0.097195  0.004360)
 63:   1729.97   0.210917  1065.89  0.038046  (-0.123745  0.141892 -0.050994)
 64:   1755.71   0.045537  230.12  0.008094  (-0.014186  0.044243  0.077039)
 65:   1776.90   0.061808  312.35  0.010855  ( 0.031662  0.077696 -0.061771)
 66:   2526.43   0.309843  1565.82  0.038272  ( 0.083438 -0.162415  0.070223)
 67:   3046.03   0.001300    6.57  0.000133  ( 0.004362  0.010117  0.003439)
 68:   3049.21   0.012840   64.89  0.001314  (-0.026204 -0.019342  0.015914)
 69:   3051.73   0.002406   12.16  0.000246  (-0.009482 -0.012485 -0.000471)
 70:   3081.78   0.002002   10.12  0.000203  ( 0.012501 -0.002446  0.006363)
 71:   3106.20   0.005973   30.19  0.000600  ( 0.005500 -0.016786 -0.016973)
 72:   3145.56   0.003330   16.83  0.000330  ( 0.006803 -0.014571 -0.008474)
 73:   3162.60   0.001643    8.30  0.000162  (-0.000972  0.012691 -0.000366)
 74:   3164.94   0.002467   12.47  0.000243  ( 0.012928 -0.002630  0.008321)
 75:   3175.06   0.002258   11.41  0.000222  ( 0.004479  0.005550 -0.013081)
 76:   3187.41   0.003473   17.55  0.000340  (-0.011087 -0.014293 -0.003583)
 77:   3608.98   0.021526  108.78  0.001861  (-0.017643 -0.031089  0.024155)

--------------------------
THERMOCHEMISTRY AT 298.15K
--------------------------

Temperature         ... 298.15 K
Pressure            ... 1.00 atm
Total Mass          ... 200.19 AMU

Throughout the following assumptions are being made:
  (1) The electronic state is orbitally nondegenerate
      but the spin degeneracy is treated
  (2) There are no thermally accessible electronically excited states
  (3) Hindered rotations indicated by low frequency modes are not
      treated as such but are treated as vibrations and this may
      cause some error
  (4) All equations used are the standard statistical mechanics
      equations for an ideal gas
  (5) All vibrations are strictly harmonic

freq.      34.53  E(vib)   ...       0.54
freq.      48.79  E(vib)   ...       0.53
freq.      67.82  E(vib)   ...       0.50
freq.      78.54  E(vib)   ...       0.49
freq.      82.62  E(vib)   ...       0.48
freq.     101.06  E(vib)   ...       0.46
freq.     118.44  E(vib)   ...       0.44
freq.     144.70  E(vib)   ...       0.41
freq.     167.90  E(vib)   ...       0.38
freq.     192.39  E(vib)   ...       0.36
freq.     221.32  E(vib)   ...       0.33
freq.     230.45  E(vib)   ...       0.32
freq.     264.01  E(vib)   ...       0.29
freq.     303.66  E(vib)   ...       0.26
freq.     361.73  E(vib)   ...       0.22
freq.     367.09  E(vib)   ...       0.22
freq.     390.12  E(vib)   ...       0.20
freq.     476.34  E(vib)   ...       0.15
freq.     509.72  E(vib)   ...       0.14
freq.     536.70  E(vib)   ...       0.12
freq.     564.10  E(vib)   ...       0.11
freq.     624.02  E(vib)   ...       0.09
freq.     642.51  E(vib)   ...       0.09
freq.     661.39  E(vib)   ...       0.08
freq.     699.99  E(vib)   ...       0.07
freq.     790.17  E(vib)   ...       0.05
freq.     794.82  E(vib)   ...       0.05
freq.     874.60  E(vib)   ...       0.04
freq.     893.63  E(vib)   ...       0.03
freq.     925.80  E(vib)   ...       0.03
freq.     995.06  E(vib)   ...       0.02
freq.    1003.35  E(vib)   ...       0.02
freq.    1038.80  E(vib)   ...       0.02
freq.    1058.65  E(vib)   ...       0.02
freq.    1082.95  E(vib)   ...       0.02
freq.    1103.60  E(vib)   ...       0.02
freq.    1150.17  E(vib)   ...       0.01
freq.    1156.89  E(vib)   ...       0.01
freq.    1162.11  E(vib)   ...       0.01
freq.    1197.82  E(vib)   ...       0.01
freq.    1199.43  E(vib)   ...       0.01
freq.    1233.14  E(vib)   ...       0.01
freq.    1264.19  E(vib)   ...       0.01
freq.    1294.39  E(vib)   ...       0.01
freq.    1324.45  E(vib)   ...       0.01
freq.    1340.41  E(vib)   ...       0.01
freq.    1389.54  E(vib)   ...       0.00
freq.    1392.93  E(vib)   ...       0.00
freq.    1429.88  E(vib)   ...       0.00
freq.    1454.16  E(vib)   ...       0.00
freq.    1474.16  E(vib)   ...       0.00
freq.    1477.31  E(vib)   ...       0.00
freq.    1487.49  E(vib)   ...       0.00
freq.    1489.80  E(vib)   ...       0.00
freq.    1513.80  E(vib)   ...       0.00
freq.    1559.57  E(vib)   ...       0.00
freq.    1676.75  E(vib)   ...       0.00
freq.    1729.97  E(vib)   ...       0.00
freq.    1755.71  E(vib)   ...       0.00
freq.    1776.90  E(vib)   ...       0.00
freq.    2526.43  E(vib)   ...       0.00
freq.    3046.03  E(vib)   ...       0.00
freq.    3049.21  E(vib)   ...       0.00
freq.    3051.73  E(vib)   ...       0.00
freq.    3081.78  E(vib)   ...       0.00
freq.    3106.20  E(vib)   ...       0.00
freq.    3145.56  E(vib)   ...       0.00
freq.    3162.60  E(vib)   ...       0.00
freq.    3164.94  E(vib)   ...       0.00
freq.    3175.06  E(vib)   ...       0.00
freq.    3187.41  E(vib)   ...       0.00
freq.    3608.98  E(vib)   ...       0.00

------------
INNER ENERGY
------------

The inner energy is: U= E(el) + E(ZPE) + E(vib) + E(rot) + E(trans)
    E(el)   - is the total energy from the electronic structure calculation
              = E(kin-el) + E(nuc-el) + E(el-el) + E(nuc-nuc)
    E(ZPE)  - the the zero temperature vibrational energy from the frequency calculation
    E(vib)  - the the finite temperature correction to E(ZPE) due to population
              of excited vibrational states
    E(rot)  - is the rotational thermal energy
    E(trans)- is the translational thermal energy

Summary of contributions to the inner energy U:
Electronic energy                ...   -722.54430160 Eh
Zero point energy                ...      0.20432498 Eh     128.22 kcal/mol
Thermal vibrational correction   ...      0.01234889 Eh       7.75 kcal/mol
Thermal rotational correction    ...      0.00141627 Eh       0.89 kcal/mol
Thermal translational correction ...      0.00141627 Eh       0.89 kcal/mol
-----------------------------------------------------------------------
Total thermal energy                   -722.32479519 Eh

Summary of corrections to the electronic energy:
(perhaps to be used in another calculation)
Total thermal correction                  0.01518143 Eh       9.53 kcal/mol
Non-thermal (ZPE) correction              0.20432498 Eh     128.22 kcal/mol
-----------------------------------------------------------------------
Total correction                          0.21950641 Eh     137.74 kcal/mol

--------
ENTHALPY
--------

The enthalpy is H = U + kB*T
                kB is Boltzmann's constant
Total free energy                 ...   -722.32479519 Eh
Thermal Enthalpy correction       ...      0.00094421 Eh       0.59 kcal/mol
-----------------------------------------------------------------------
Total Enthalpy                    ...   -722.32385098 Eh

Note: Only C1 symmetry has been detected, increase convergence thresholds
      if your molecule has a higher symmetry. Symmetry factor of 1.0 is
      used for the rotational entropy correction.

Note: Rotational entropy computed according to Herzberg
Infrared and Raman Spectra, Chapter V,1, Van Nostrand Reinhold, 1945
Point Group:  C1, Symmetry Number:   1
Rotational constants in cm-1:     0.029607     0.015207     0.011269

Vibrational entropy computed according to the QRRHO of S. Grimme
Chem.Eur.J. 2012 18 9955

-------
ENTROPY
-------

The entropy contributions are T*S = T*(S(el)+S(vib)+S(rot)+S(trans))
     S(el)   - electronic entropy
     S(vib)  - vibrational entropy
     S(rot)  - rotational entropy
     S(trans)- translational entropy
The entropies will be listed as multiplied by the temperature to get
units of energy

Electronic entropy                ...      0.00065446 Eh      0.41 kcal/mol

                             ****ORCA TERMINATED NORMALLY****
TOTAL RUN TIME: 0 days 0 hours 43 minutes 25 seconds 900 msec
