                         Program Version 5.0.4 -  RELEASE  -
|  1> ! B3LYP EPR-II OPT
|  2> %pal nprocs 16 end
|  3> *XYZFile -1 2 model.xyz
|  4>
|  5>                          ****END OF INPUT****
 Total Charge           Charge          ....   -1
 Multiplicity           Mult            ....    2
 Number of Electrons    NEL             ....  107
FINAL SINGLE POINT ENERGY      -722.308403666848
FINAL SINGLE POINT ENERGY      -722.302832150926
FINAL SINGLE POINT ENERGY      -722.298710852543
FINAL SINGLE POINT ENERGY      -722.308127647931
FINAL SINGLE POINT ENERGY      -722.307110995033
FINAL SINGLE POINT ENERGY      -722.308871795162
FINAL SINGLE POINT ENERGY      -722.308041788609
FINAL SINGLE POINT ENERGY      -722.309128059252
FINAL SINGLE POINT ENERGY      -722.309771691682
FINAL SINGLE POINT ENERGY      -722.310489299868
FINAL SINGLE POINT ENERGY      -722.310525017688
FINAL SINGLE POINT ENERGY      -722.310530425524
FINAL SINGLE POINT ENERGY      -722.310531570458
FINAL SINGLE POINT ENERGY      -722.310531153462
FINAL SINGLE POINT ENERGY      -722.310528652850
FINAL SINGLE POINT ENERGY      -722.310525951313
FINAL SINGLE POINT ENERGY      -722.310522662598
FINAL SINGLE POINT ENERGY      -722.310521332074
                    ***********************HURRAY********************

CARTESIAN COORDINATES (ANGSTROEM)
---------------------------------
  N     -1.956213    0.056226   -0.349043
  C     -0.548821   -0.028117    0.044993
  C      0.071541    1.350862   -0.317221
  O     -0.515257    2.127691   -1.096093
  C      0.147659   -1.200663   -0.622397
  C      1.626082   -1.338837   -0.775019
  H      1.856769   -2.214616   -1.386046
  H      2.059502   -0.452311   -1.259433
  C      2.419369   -1.513246    0.605067
  O      2.354866   -0.513078    1.398127
  O      3.023772   -2.586385    0.764564
  H     -2.126413    0.786803   -1.031027
  C     -2.987746   -0.536305    0.302835
  N      1.248909    1.605190    0.275712
  H      1.721175    0.799812    0.790132
  O     -2.860567   -1.308073    1.257907
  C     -4.379894   -0.199066   -0.245740
  H     -4.982467    0.209880    0.570319
  H     -4.362937    0.512374   -1.076493
  H     -4.853824   -1.127928   -0.576506
  C      1.999677    2.806579   -0.048946
  H      1.472229    3.708648    0.283039
  H      2.965996    2.753778    0.458360
  H      2.165745    2.900876   -1.129339
  H     -0.503455   -0.150770    1.137599
  H     -0.453289   -2.108595   -0.644825

 Multiplicity           Mult            ....    2
 Number of Electrons    NEL             ....  107
 Basis Dimension        Dim             ....  322

ORBITAL ENERGIES
----------------
                 SPIN UP ORBITALS
  NO   OCC          E(Eh)            E(eV)
   0   1.0000     -18.993401      -516.8367
   1   1.0000     -18.992041      -516.7997
   2   1.0000     -18.939540      -515.3711
   3   1.0000     -18.935609      -515.2641
   4   1.0000     -14.238497      -387.4492
   5   1.0000     -14.215099      -386.8125
   6   1.0000     -10.183333      -277.1026
   7   1.0000     -10.167291      -276.6661
   8   1.0000     -10.132900      -275.7302
   9   1.0000     -10.113752      -275.2092
  10   1.0000     -10.102054      -274.8909
  11   1.0000     -10.094714      -274.6911
  12   1.0000     -10.069252      -273.9983
  13   1.0000     -10.049567      -273.4626
  14   1.0000      -0.915957       -24.9245
  15   1.0000      -0.906047       -24.6548
  16   1.0000      -0.871555       -23.7162
  17   1.0000      -0.804193       -21.8832
  18   1.0000      -0.794497       -21.6194
  19   1.0000      -0.781008       -21.2523
  20   1.0000      -0.666393       -18.1335
  21   1.0000      -0.629187       -17.1211
  22   1.0000      -0.599142       -16.3035
  23   1.0000      -0.562993       -15.3198
  24   1.0000      -0.485808       -13.2195
  25   1.0000      -0.458973       -12.4893
  26   1.0000      -0.436632       -11.8814
  27   1.0000      -0.413235       -11.2447
  28   1.0000      -0.367649       -10.0042
  29   1.0000      -0.358623        -9.7586
  30   1.0000      -0.352127        -9.5819
  31   1.0000      -0.339341        -9.2339
  32   1.0000      -0.337139        -9.1740
  33   1.0000      -0.331719        -9.0265
  34   1.0000      -0.315589        -8.5876
  35   1.0000      -0.303847        -8.2681
  36   1.0000      -0.299636        -8.1535
  37   1.0000      -0.291424        -7.9300
  38   1.0000      -0.279842        -7.6149
  39   1.0000      -0.268951        -7.3185
  40   1.0000      -0.265160        -7.2154
  41   1.0000      -0.254080        -6.9139
  42   1.0000      -0.250519        -6.8170
  43   1.0000      -0.240576        -6.5464
  44   1.0000      -0.220397        -5.9973
  45   1.0000      -0.210385        -5.7249
  46   1.0000      -0.148677        -4.0457
  47   1.0000      -0.143860        -3.9146
  48   1.0000      -0.139467        -3.7951
  49   1.0000      -0.129522        -3.5245
  50   1.0000      -0.111556        -3.0356
  51   1.0000      -0.102511        -2.7895
  52   1.0000      -0.088166        -2.3991
  53   1.0000      -0.045374        -1.2347
  54   0.0000       0.106198         2.8898
  55   0.0000       0.119110         3.2412
  56   0.0000       0.133758         3.6397
  57   0.0000       0.144976         3.9450
  58   0.0000       0.155412         4.2290

                 SPIN DOWN ORBITALS
  NO   OCC          E(Eh)            E(eV)
   0   1.0000     -18.993329      -516.8348
   1   1.0000     -18.991986      -516.7982
   2   1.0000     -18.939111      -515.3594
   3   1.0000     -18.934678      -515.2388
   4   1.0000     -14.238112      -387.4387
   5   1.0000     -14.215066      -386.8116
   6   1.0000     -10.183372      -277.1036
   7   1.0000     -10.166976      -276.6575
   8   1.0000     -10.131390      -275.6891
   9   1.0000     -10.114497      -275.2295
  10   1.0000     -10.102039      -274.8904
  11   1.0000     -10.094698      -274.6907
  12   1.0000     -10.056333      -273.6467
  13   1.0000     -10.050185      -273.4794
  14   1.0000      -0.915751       -24.9189
  15   1.0000      -0.905881       -24.6503
  16   1.0000      -0.869690       -23.6655
  17   1.0000      -0.803296       -21.8588
  18   1.0000      -0.793465       -21.5913
  19   1.0000      -0.780116       -21.2280
  20   1.0000      -0.659297       -17.9404
  21   1.0000      -0.623808       -16.9747
  22   1.0000      -0.595399       -16.2016
  23   1.0000      -0.561663       -15.2836
  24   1.0000      -0.478325       -13.0159
  25   1.0000      -0.453285       -12.3345
  26   1.0000      -0.430392       -11.7116
  27   1.0000      -0.412111       -11.2141
  28   1.0000      -0.367052        -9.9880
  29   1.0000      -0.353161        -9.6100
  30   1.0000      -0.349776        -9.5179
  31   1.0000      -0.338369        -9.2075
  32   1.0000      -0.336269        -9.1503
  33   1.0000      -0.328125        -8.9287
  34   1.0000      -0.312569        -8.5054
  35   1.0000      -0.301710        -8.2099
  36   1.0000      -0.298432        -8.1207
  37   1.0000      -0.288709        -7.8562
  38   1.0000      -0.278254        -7.5717
  39   1.0000      -0.267277        -7.2730
  40   1.0000      -0.262252        -7.1362
  41   1.0000      -0.252966        -6.8836
  42   1.0000      -0.248265        -6.7556
  43   1.0000      -0.237913        -6.4739
  44   1.0000      -0.217710        -5.9242
  45   1.0000      -0.207223        -5.6388
  46   1.0000      -0.147315        -4.0086
  47   1.0000      -0.142721        -3.8836
  48   1.0000      -0.137087        -3.7303
  49   1.0000      -0.128709        -3.5024
  50   1.0000      -0.101857        -2.7717
  51   1.0000      -0.095243        -2.5917
  52   1.0000      -0.080563        -2.1922
  53   0.0000       0.074054         2.0151
  54   0.0000       0.106968         2.9108
  55   0.0000       0.119134         3.2418
  56   0.0000       0.135883         3.6976
  57   0.0000       0.145668         3.9638

MULLIKEN ATOMIC CHARGES AND SPIN POPULATIONS
--------------------------------------------
   0 N :   -0.101852    0.010413
   1 C :   -0.109812   -0.030447
   2 C :    0.056618    0.007768
   3 O :   -0.408706    0.000586
   4 C :   -0.153830    0.931644
   5 C :   -0.357193   -0.058336
   6 H :    0.133327    0.005688
   7 H :    0.144433    0.029124
   8 C :    0.125254    0.044957
   9 O :   -0.418233    0.020449
  10 O :   -0.394040    0.035867
  11 H :    0.236607    0.000709
  12 C :    0.148996   -0.006990
  13 N :   -0.047680   -0.000265
  14 H :    0.272539   -0.000102
  15 O :   -0.337858    0.001933
  16 C :   -0.575508    0.001811
  17 H :    0.172909   -0.000093
  18 H :    0.145138   -0.000046
  19 H :    0.173741   -0.000028
  20 C :   -0.478555    0.001221
  21 H :    0.155005   -0.000041
  22 H :    0.148672   -0.000041
  23 H :    0.156217   -0.000062
  24 H :    0.190586    0.043469
  25 H :    0.123226   -0.039188
Sum of atomic charges         :   -1.0000000

LOEWDIN ATOMIC CHARGES AND SPIN POPULATIONS
-------------------------------------------
   0 N :    0.070342    0.012859
   1 C :   -0.051769    0.018052
   2 C :   -0.099490    0.011455
   3 O :   -0.249031    0.001548
   4 C :   -0.053570    0.765138
   5 C :   -0.087822    0.017296
   6 H :    0.044369    0.003899
   7 H :    0.049041    0.021726
   8 C :   -0.173171    0.057564
   9 O :   -0.298621    0.014026
  10 O :   -0.264739    0.029590
  11 H :    0.085971    0.000171
  12 C :   -0.119144   -0.000636
  13 N :    0.031228    0.000380
  14 H :    0.075280    0.000179
  15 O :   -0.214112    0.001945
  16 C :   -0.059583    0.000744
  17 H :    0.046115   -0.000072
  18 H :    0.029299    0.000036
  19 H :    0.046273   -0.000054
  20 C :   -0.017690    0.000878
  21 H :    0.028154   -0.000043
  22 H :    0.031904   -0.000003
  23 H :    0.030781   -0.000051
  24 H :    0.079436    0.034248
  25 H :    0.040549    0.009125

  Mayer bond orders larger than 0.100000
B(  0-N ,  1-C ) :   0.9576 B(  0-N , 11-H ) :   0.8920 B(  0-N , 12-C ) :   1.2458
B(  1-C ,  2-C ) :   0.8991 B(  1-C ,  4-C ) :   1.0096 B(  1-C , 15-O ) :   0.1311
B(  1-C , 24-H ) :   0.9599 B(  2-C ,  3-O ) :   1.7617 B(  2-C , 13-N ) :   1.3113
B(  4-C ,  5-C ) :   1.0425 B(  4-C , 25-H ) :   0.9867 B(  5-C ,  6-H ) :   0.9946
B(  5-C ,  7-H ) :   0.9649 B(  5-C ,  8-C ) :   0.8376 B(  8-C ,  9-O ) :   1.4758
B(  8-C , 10-O ) :   1.7240 B(  9-O , 14-H ) :   0.2282 B( 12-C , 15-O ) :   1.8396
B( 12-C , 16-C ) :   0.8777 B( 13-N , 14-H ) :   0.7375 B( 13-N , 20-C ) :   0.9601
B( 16-C , 17-H ) :   0.9683 B( 16-C , 18-H ) :   0.9781 B( 16-C , 19-H ) :   0.9672
B( 20-C , 21-H ) :   0.9623 B( 20-C , 22-H ) :   0.9708 B( 20-C , 23-H ) :   0.9574

FINAL SINGLE POINT ENERGY      -722.310520851823

DIPOLE MOMENT
-------------
                                X             Y             Z
Electronic contribution:      2.40809      -4.05545       3.14267
Nuclear contribution   :     -4.54576       6.12053      -4.69924
                        -----------------------------------------
Total Dipole Moment    :     -2.13766       2.06508      -1.55657
                        -----------------------------------------
Magnitude (a.u.)       :      3.35515
Magnitude (Debye)      :      8.52812

Rotational constants in cm-1:     0.028832     0.014873     0.010965
Rotational constants in MHz :   864.360366   445.872969   328.719365

                             ****ORCA TERMINATED NORMALLY****
TOTAL RUN TIME: 0 days 0 hours 27 minutes 14 seconds 455 msec
