                         Program Version 5.0.4 -  RELEASE  -
|  1> ! B3LYP EPR-II AUTOAUX
|  2> %pal nprocs 16 end
|  3> *XYZFile 0 2 opt.xyz
|  4> %EPRNMR
|  5>         GTENSOR   TRUE
|  6>         NUCLEI    = 1,4,9,10,11,12,13,14,15,16,17,18,19,21,22,32 {SHIFT, AISO, ADIP, AORB}
|  7>         ORI       GIAO
|  8> END
|  9>
| 10>                          ****END OF INPUT****

CARTESIAN COORDINATES (ANGSTROEM)
---------------------------------
  N     -1.984447    0.776611    0.809381
  C     -1.564756   -0.014801   -0.345979
  C     -1.855279   -1.500637    0.032114
  O     -2.535147   -1.793719    1.016703
  C     -0.134476    0.228144   -0.758798
  C      0.986792    0.195291    0.237355
  C      2.368729   -0.032913   -0.405210
  C      3.519230    0.060219    0.606457
  N      4.811539   -0.204028   -0.052648
  H      0.043020    0.691225   -1.726450
  H      0.795004   -0.573326    1.000214
  H      1.003953    1.152621    0.787693
  H      2.523549    0.714790   -1.196314
  H      2.406202   -1.015929   -0.889000
  H      3.377182   -0.702404    1.382275
  H      3.472061    1.041668    1.110111
  H      5.558424   -0.176992    0.636677
  H      5.012274    0.546065   -0.709964
  H     -2.422923    0.237445    1.547550
  C     -2.170157    2.128701    0.721283
  N     -1.338703   -2.411659   -0.834472
  H     -0.712084   -2.058695   -1.544696
  O     -1.857861    2.776699   -0.277993
  C     -2.771602    2.794051    1.956743
  H     -3.685526    3.315079    1.659043
  H     -3.000094    2.091535    2.762459
  H     -2.067055    3.545641    2.323570
  C     -1.518073   -3.850533   -0.684672
  H     -2.277264   -4.018257    0.079531
  H     -1.852014   -4.293029   -1.628110
  H     -0.587975   -4.337876   -0.370889
  H     -2.214857    0.223127   -1.199846

 Total Charge           Charge          ....    0
 Multiplicity           Mult            ....    2
 Number of Electrons    NEL             ....  109
 Basis Dimension        Dim             ....  364

ORBITAL ENERGIES
----------------
                 SPIN UP ORBITALS
  NO   OCC          E(Eh)            E(eV)
   0   1.0000     -19.124120      -520.3938
   1   1.0000     -19.100326      -519.7463
   2   1.0000     -14.370304      -391.0358
   3   1.0000     -14.348771      -390.4499
   4   1.0000     -14.309985      -389.3945
   5   1.0000     -10.305061      -280.4150
   6   1.0000     -10.286991      -279.9233
   7   1.0000     -10.242531      -278.7134
   8   1.0000     -10.224216      -278.2151
   9   1.0000     -10.208030      -277.7746
  10   1.0000     -10.203402      -277.6487
  11   1.0000     -10.190946      -277.3097
  12   1.0000     -10.185446      -277.1601
  13   1.0000     -10.183545      -277.1083
  14   1.0000      -1.046826       -28.4856
  15   1.0000      -1.021965       -27.8091
  16   1.0000      -0.931926       -25.3590
  17   1.0000      -0.915963       -24.9246
  18   1.0000      -0.877683       -23.8830
  19   1.0000      -0.802383       -21.8339
  20   1.0000      -0.762697       -20.7540
  21   1.0000      -0.727095       -19.7853
  22   1.0000      -0.710114       -19.3232
  23   1.0000      -0.671858       -18.2822
  24   1.0000      -0.612898       -16.6778
  25   1.0000      -0.594661       -16.1816
  26   1.0000      -0.588029       -16.0011
  27   1.0000      -0.555190       -15.1075
  28   1.0000      -0.534172       -14.5356
  29   1.0000      -0.492843       -13.4109
  30   1.0000      -0.487394       -13.2627
  31   1.0000      -0.475846       -12.9484
  32   1.0000      -0.469935       -12.7876
  33   1.0000      -0.458862       -12.4863
  34   1.0000      -0.453571       -12.3423
  35   1.0000      -0.446871       -12.1600
  36   1.0000      -0.434070       -11.8117
  37   1.0000      -0.429531       -11.6881
  38   1.0000      -0.417575       -11.3628
  39   1.0000      -0.401406       -10.9228
  40   1.0000      -0.399882       -10.8813
  41   1.0000      -0.392435       -10.6787
  42   1.0000      -0.389464       -10.5979
  43   1.0000      -0.383783       -10.4433
  44   1.0000      -0.366180        -9.9643
  45   1.0000      -0.354422        -9.6443
  46   1.0000      -0.350250        -9.5308
  47   1.0000      -0.335304        -9.1241
  48   1.0000      -0.332536        -9.0488
  49   1.0000      -0.281063        -7.6481
  50   1.0000      -0.270523        -7.3613
  51   1.0000      -0.252906        -6.8819
  52   1.0000      -0.247773        -6.7423
  53   1.0000      -0.240183        -6.5357
  54   1.0000      -0.199956        -5.4411
  55   0.0000       0.004645         0.1264
  56   0.0000       0.013465         0.3664
  57   0.0000       0.021071         0.5734
  58   0.0000       0.026807         0.7295
  59   0.0000       0.029122         0.7925

                 SPIN DOWN ORBITALS
  NO   OCC          E(Eh)            E(eV)
   0   1.0000     -19.123794      -520.3849
   1   1.0000     -19.100046      -519.7387
   2   1.0000     -14.369877      -391.0242
   3   1.0000     -14.347790      -390.4232
   4   1.0000     -14.309965      -389.3939
   5   1.0000     -10.304264      -280.3933
   6   1.0000     -10.286989      -279.9232
   7   1.0000     -10.243356      -278.7359
   8   1.0000     -10.224235      -278.2156
   9   1.0000     -10.208002      -277.7739
  10   1.0000     -10.191732      -277.3311
  11   1.0000     -10.189928      -277.2820
  12   1.0000     -10.185362      -277.1578
  13   1.0000     -10.183254      -277.1004
  14   1.0000      -1.045978       -28.4625
  15   1.0000      -1.021378       -27.7931
  16   1.0000      -0.930923       -25.3317
  17   1.0000      -0.913758       -24.8646
  18   1.0000      -0.877583       -23.8803
  19   1.0000      -0.792094       -21.5540
  20   1.0000      -0.761321       -20.7166
  21   1.0000      -0.726337       -19.7646
  22   1.0000      -0.703145       -19.1336
  23   1.0000      -0.670091       -18.2341
  24   1.0000      -0.603977       -16.4350
  25   1.0000      -0.593313       -16.1449
  26   1.0000      -0.586370       -15.9559
  27   1.0000      -0.546739       -14.8775
  28   1.0000      -0.530302       -14.4302
  29   1.0000      -0.490861       -13.3570
  30   1.0000      -0.486278       -13.2323
  31   1.0000      -0.475283       -12.9331
  32   1.0000      -0.467441       -12.7197
  33   1.0000      -0.458067       -12.4646
  34   1.0000      -0.452607       -12.3161
  35   1.0000      -0.445566       -12.1245
  36   1.0000      -0.431622       -11.7450
  37   1.0000      -0.427716       -11.6387
  38   1.0000      -0.412255       -11.2180
  39   1.0000      -0.400585       -10.9005
  40   1.0000      -0.398112       -10.8332
  41   1.0000      -0.390318       -10.6211
  42   1.0000      -0.388622       -10.5749
  43   1.0000      -0.382283       -10.4024
  44   1.0000      -0.363051        -9.8791
  45   1.0000      -0.353522        -9.6198
  46   1.0000      -0.346714        -9.4346
  47   1.0000      -0.333654        -9.0792
  48   1.0000      -0.329870        -8.9762
  49   1.0000      -0.274617        -7.4727
  50   1.0000      -0.269748        -7.3402
  51   1.0000      -0.251031        -6.8309
  52   1.0000      -0.244963        -6.6658
  53   1.0000      -0.239701        -6.5226
  54   0.0000      -0.065149        -1.7728
  55   0.0000       0.005889         0.1602
  56   0.0000       0.014506         0.3947
  57   0.0000       0.021950         0.5973
  58   0.0000       0.027179         0.7396

MULLIKEN ATOMIC CHARGES AND SPIN POPULATIONS
--------------------------------------------
   0 N :   -0.132477    0.027200
   1 C :   -0.111350   -0.048586
   2 C :    0.054959    0.020466
   3 O :   -0.337819    0.008659
   4 C :   -0.137727    0.983412
   5 C :   -0.219211   -0.057820
   6 C :   -0.288801    0.011165
   7 C :   -0.291423    0.001085
   8 N :   -0.456688    0.000525
   9 H :    0.114656   -0.048568
  10 H :    0.148398    0.015173
  11 H :    0.156297    0.053122
  12 H :    0.144806   -0.000559
  13 H :    0.161648   -0.000453
  14 H :    0.157245    0.000154
  15 H :    0.135106    0.000257
  16 H :    0.211038    0.000244
  17 H :    0.210759    0.000048
  18 H :    0.250229    0.000587
  19 C :    0.176686   -0.002153
  20 N :   -0.075441    0.016919
  21 H :    0.236761    0.002690
  22 O :   -0.317563    0.008700
  23 C :   -0.552929    0.003311
  24 H :    0.185846   -0.000267
  25 H :    0.150036   -0.000015
  26 H :    0.183461    0.000657
  27 C :   -0.454668   -0.001397
  28 H :    0.197624    0.001818
  29 H :    0.161385   -0.000025
  30 H :    0.164759    0.000471
  31 H :    0.174396    0.003185
Sum of atomic charges         :   -0.0000000

LOEWDIN ATOMIC CHARGES AND SPIN POPULATIONS
-------------------------------------------
   0 N :    0.057199    0.026607
   1 C :   -0.058667    0.014417
   2 C :   -0.090691    0.026426
   3 O :   -0.192711    0.010562
   4 C :   -0.041628    0.797213
   5 C :   -0.081453    0.007989
   6 C :   -0.084399    0.010783
   7 C :   -0.061998    0.001387
   8 N :   -0.095719    0.000584
   9 H :    0.045031    0.009860
  10 H :    0.054384    0.012698
  11 H :    0.061820    0.042945
  12 H :    0.043371    0.000089
  13 H :    0.047870   -0.000249
  14 H :    0.038548    0.000162
  15 H :    0.024355    0.000526
  16 H :    0.049463    0.000185
  17 H :    0.051568    0.000018
  18 H :    0.089737    0.001339
  19 C :   -0.103659    0.002302
  20 N :    0.046625    0.014187
  21 H :    0.083935    0.007375
  22 O :   -0.186113    0.007608
  23 C :   -0.042962    0.002675
  24 H :    0.054217   -0.000050
  25 H :    0.033842    0.000007
  26 H :    0.053740    0.000463
  27 C :    0.011554    0.000189
  28 H :    0.053769    0.000917
  29 H :    0.032347   -0.000052
  30 H :    0.032458    0.000316
  31 H :    0.074167    0.000523

  Mayer bond orders larger than 0.100000
B(  0-N ,  1-C ) :   1.0313 B(  0-N , 18-H ) :   0.8876 B(  0-N , 19-C ) :   1.2057
B(  1-C ,  2-C ) :   0.8715 B(  1-C ,  4-C ) :   0.9801 B(  1-C , 22-O ) :   0.1141
B(  1-C , 31-H ) :   0.9576 B(  2-C ,  3-O ) :   1.8513 B(  2-C , 20-N ) :   1.1960
B(  4-C ,  5-C ) :   1.0141 B(  4-C ,  9-H ) :   0.9824 B(  5-C ,  6-C ) :   0.9607
B(  5-C , 10-H ) :   0.9625 B(  5-C , 11-H ) :   0.9419 B(  6-C ,  7-C ) :   0.9640
B(  6-C , 12-H ) :   0.9758 B(  6-C , 13-H ) :   0.9682 B(  7-C ,  8-N ) :   1.0225
B(  7-C , 14-H ) :   0.9590 B(  7-C , 15-H ) :   0.9408 B(  8-N , 16-H ) :   0.9439
B(  8-N , 17-H ) :   0.9469 B( 19-C , 22-O ) :   1.8657 B( 19-C , 23-C ) :   0.8875
B( 20-N , 21-H ) :   0.9154 B( 20-N , 27-C ) :   0.9658 B( 23-C , 24-H ) :   0.9594
B( 23-C , 25-H ) :   0.9762 B( 23-C , 26-H ) :   0.9598 B( 27-C , 28-H ) :   0.9465
B( 27-C , 29-H ) :   0.9629 B( 27-C , 30-H ) :   0.9566

FINAL SINGLE POINT ENERGY      -668.217780603855

DIPOLE MOMENT
-------------
                                X             Y             Z
Electronic contribution:    -11.20223       1.53094      -1.08522
Nuclear contribution   :     11.89378      -2.24023       1.15487
                        -----------------------------------------
Total Dipole Moment    :      0.69155      -0.70929       0.06965
                        -----------------------------------------
Magnitude (a.u.)       :      0.99307
Magnitude (Debye)      :      2.52418

Rotational constants in cm-1:     0.020180     0.013329     0.008891
Rotational constants in MHz :   604.971780   399.580939   266.547810

CHEMICAL SHIELDING SUMMARY (ppm)  --  Orbital contribution
----------------------------------------------------------

  Nucleus  Element    Isotropic     Anisotropy
  -------  -------  ------------   ------------
      0       N          120.774        123.786
      3       O          -35.409        523.868
      8       N          224.184         34.194
      9       H           26.492          4.725
     10       H           30.075          4.766
     11       H           29.571          5.998
     12       H           30.450          4.553
     13       H           30.179          4.639
     14       H           29.444          4.559
     15       H           28.934          5.941
     16       H           31.196         14.184
     17       H           31.667         11.510
     18       H           25.104          7.996
     20       N          143.009         91.547
     21       H           26.777          7.353
     31       H           27.204          4.683

                             ****ORCA TERMINATED NORMALLY****
TOTAL RUN TIME: 0 days 0 hours 8 minutes 7 seconds 999 msec
