                         Program Version 5.0.4 -  RELEASE  -
|  1> ! M062X def2-TZVP OPT FREQ
|  2> %pal nprocs 16 end
|  3> *XYZFile 0 2 opt.xyz
|  4>
|  5>                          ****END OF INPUT****
 Total Charge           Charge          ....    0
 Multiplicity           Mult            ....    2
 Number of Electrons    NEL             ....  109
FINAL SINGLE POINT ENERGY      -668.443006911631
FINAL SINGLE POINT ENERGY      -668.445847459723
FINAL SINGLE POINT ENERGY      -668.445994308928
FINAL SINGLE POINT ENERGY      -668.446074543655
FINAL SINGLE POINT ENERGY      -668.446113110220
FINAL SINGLE POINT ENERGY      -668.446137760079
FINAL SINGLE POINT ENERGY      -668.446156950633
FINAL SINGLE POINT ENERGY      -668.446165501192
FINAL SINGLE POINT ENERGY      -668.446170938453
FINAL SINGLE POINT ENERGY      -668.446171608088
FINAL SINGLE POINT ENERGY      -668.445947847676
FINAL SINGLE POINT ENERGY      -668.445996413305
FINAL SINGLE POINT ENERGY      -668.446144852770
FINAL SINGLE POINT ENERGY      -668.446123084637
FINAL SINGLE POINT ENERGY      -668.446017052924
FINAL SINGLE POINT ENERGY      -668.446078998618
FINAL SINGLE POINT ENERGY      -668.446075434743
FINAL SINGLE POINT ENERGY      -668.445978320732
FINAL SINGLE POINT ENERGY      -668.446050490252
                    ***********************HURRAY********************

CARTESIAN COORDINATES (ANGSTROEM)
---------------------------------
  N     -2.043425    0.828346    0.827360
  C     -1.559515    0.060276   -0.303941
  C     -1.666793   -1.421843    0.098195
  O     -2.175780   -1.770032    1.146749
  C     -0.165406    0.423273   -0.706583
  C      0.956501    0.266550    0.257147
  C      2.281963   -0.057401   -0.429560
  C      3.436462   -0.175660    0.551068
  N      4.664257   -0.534176   -0.152816
  H     -0.033162    1.059917   -1.570752
  H      0.713575   -0.515069    0.986297
  H      1.070398    1.191588    0.840634
  H      2.507480    0.724690   -1.162686
  H      2.196197   -0.994044   -0.986512
  H      3.216861   -0.969519    1.269441
  H      3.514155    0.758963    1.124008
  H      5.432556   -0.652950    0.495307
  H      4.929381    0.204699   -0.793904
  H     -2.380173    0.289190    1.612516
  C     -2.298979    2.152934    0.703958
  N     -1.173987   -2.283978   -0.812785
  H     -0.676266   -1.898070   -1.599234
  O     -2.028487    2.773628   -0.306910
  C     -2.945185    2.815250    1.898631
  H     -3.920764    3.190158    1.590726
  H     -3.066610    2.144476    2.746997
  H     -2.338952    3.671023    2.190812
  C     -1.208172   -3.717877   -0.617645
  H     -2.042169   -3.954998    0.038135
  H     -1.350738   -4.212336   -1.576769
  H     -0.288522   -4.085572   -0.158575
  H     -2.229037    0.222679   -1.155189

 Multiplicity           Mult            ....    2
 Number of Electrons    NEL             ....  109
 Basis Dimension        Dim             ....  542

ORBITAL ENERGIES
----------------
                 SPIN UP ORBITALS
  NO   OCC          E(Eh)            E(eV)
   0   1.0000     -19.607237      -533.5400
   1   1.0000     -19.583711      -532.8999
   2   1.0000     -14.783887      -402.2900
   3   1.0000     -14.765534      -401.7906
   4   1.0000     -14.726663      -400.7329
   5   1.0000     -10.653194      -289.8881
   6   1.0000     -10.636280      -289.4279
   7   1.0000     -10.592126      -288.2264
   8   1.0000     -10.576067      -287.7894
   9   1.0000     -10.558570      -287.3133
  10   1.0000     -10.554735      -287.2090
  11   1.0000     -10.540227      -286.8142
  12   1.0000     -10.536147      -286.7031
  13   1.0000     -10.534061      -286.6464
  14   1.0000      -1.181105       -32.1395
  15   1.0000      -1.156905       -31.4810
  16   1.0000      -1.047428       -28.5020
  17   1.0000      -1.034269       -28.1439
  18   1.0000      -0.992121       -26.9970
  19   1.0000      -0.913345       -24.8534
  20   1.0000      -0.868121       -23.6228
  21   1.0000      -0.827609       -22.5204
  22   1.0000      -0.808070       -21.9887
  23   1.0000      -0.766778       -20.8651
  24   1.0000      -0.703911       -19.1544
  25   1.0000      -0.682088       -18.5606
  26   1.0000      -0.677947       -18.4479
  27   1.0000      -0.641505       -17.4562
  28   1.0000      -0.618513       -16.8306
  29   1.0000      -0.579684       -15.7740
  30   1.0000      -0.568873       -15.4798
  31   1.0000      -0.558166       -15.1885
  32   1.0000      -0.552413       -15.0319
  33   1.0000      -0.539835       -14.6897
  34   1.0000      -0.534693       -14.5497
  35   1.0000      -0.528267       -14.3749
  36   1.0000      -0.510631       -13.8950
  37   1.0000      -0.506856       -13.7922
  38   1.0000      -0.493624       -13.4322
  39   1.0000      -0.478842       -13.0299
  40   1.0000      -0.470302       -12.7976
  41   1.0000      -0.467268       -12.7150
  42   1.0000      -0.460954       -12.5432
  43   1.0000      -0.458891       -12.4871
  44   1.0000      -0.435911       -11.8617
  45   1.0000      -0.427672       -11.6375
  46   1.0000      -0.420609       -11.4454
  47   1.0000      -0.400209       -10.8902
  48   1.0000      -0.398861       -10.8536
  49   1.0000      -0.356433        -9.6990
  50   1.0000      -0.339135        -9.2283
  51   1.0000      -0.329639        -8.9699
  52   1.0000      -0.319341        -8.6897
  53   1.0000      -0.311371        -8.4728
  54   1.0000      -0.259471        -7.0606
  55   0.0000       0.046181         1.2566
  56   0.0000       0.053298         1.4503
  57   0.0000       0.061534         1.6744
  58   0.0000       0.069816         1.8998
  59   0.0000       0.073935         2.0119

                 SPIN DOWN ORBITALS
  NO   OCC          E(Eh)            E(eV)
   0   1.0000     -19.607122      -533.5369
   1   1.0000     -19.583492      -532.8939
   2   1.0000     -14.783625      -402.2829
   3   1.0000     -14.764682      -401.7674
   4   1.0000     -14.726644      -400.7324
   5   1.0000     -10.652771      -289.8766
   6   1.0000     -10.636294      -289.4283
   7   1.0000     -10.592777      -288.2441
   8   1.0000     -10.576074      -287.7896
   9   1.0000     -10.558537      -287.3124
  10   1.0000     -10.547997      -287.0256
  11   1.0000     -10.540842      -286.8309
  12   1.0000     -10.536092      -286.7016
  13   1.0000     -10.533696      -286.6364
  14   1.0000      -1.180482       -32.1226
  15   1.0000      -1.156298       -31.4645
  16   1.0000      -1.046550       -28.4781
  17   1.0000      -1.031471       -28.0678
  18   1.0000      -0.991951       -26.9924
  19   1.0000      -0.901007       -24.5176
  20   1.0000      -0.866295       -23.5731
  21   1.0000      -0.826316       -22.4852
  22   1.0000      -0.800063       -21.7708
  23   1.0000      -0.764863       -20.8130
  24   1.0000      -0.693530       -18.8719
  25   1.0000      -0.680852       -18.5269
  26   1.0000      -0.675588       -18.3837
  27   1.0000      -0.631570       -17.1859
  28   1.0000      -0.612733       -16.6733
  29   1.0000      -0.575962       -15.6727
  30   1.0000      -0.567307       -15.4372
  31   1.0000      -0.556845       -15.1525
  32   1.0000      -0.550171       -14.9709
  33   1.0000      -0.539067       -14.6688
  34   1.0000      -0.532941       -14.5021
  35   1.0000      -0.526589       -14.3292
  36   1.0000      -0.507592       -13.8123
  37   1.0000      -0.504008       -13.7147
  38   1.0000      -0.487595       -13.2681
  39   1.0000      -0.475905       -12.9500
  40   1.0000      -0.469508       -12.7760
  41   1.0000      -0.464732       -12.6460
  42   1.0000      -0.459366       -12.5000
  43   1.0000      -0.457144       -12.4395
  44   1.0000      -0.432276       -11.7628
  45   1.0000      -0.426828       -11.6146
  46   1.0000      -0.415600       -11.3090
  47   1.0000      -0.397491       -10.8163
  48   1.0000      -0.396411       -10.7869
  49   1.0000      -0.350564        -9.5393
  50   1.0000      -0.337944        -9.1959
  51   1.0000      -0.326611        -8.8875
  52   1.0000      -0.316994        -8.6258
  53   1.0000      -0.310536        -8.4501
  54   0.0000      -0.021518        -0.5855
  55   0.0000       0.045122         1.2278
  56   0.0000       0.053915         1.4671
  57   0.0000       0.059565         1.6208
  58   0.0000       0.069666         1.8957

MULLIKEN ATOMIC CHARGES AND SPIN POPULATIONS
--------------------------------------------
   0 N :   -0.375123    0.028823
   1 C :   -0.072948   -0.045766
   2 C :    0.342256    0.003229
   3 O :   -0.411169    0.002777
   4 C :   -0.249007    1.098930
   5 C :   -0.291592   -0.144118
   6 C :   -0.238082    0.024615
   7 C :   -0.146013    0.004757
   8 N :   -0.551704    0.000190
   9 H :    0.192777   -0.036108
  10 H :    0.166287    0.006092
  11 H :    0.160409    0.050063
  12 H :    0.136353   -0.002641
  13 H :    0.134346   -0.002205
  14 H :    0.129717   -0.000143
  15 H :    0.120275   -0.000433
  16 H :    0.227438    0.000325
  17 H :    0.226447    0.000026
  18 H :    0.267082    0.001231
  19 C :    0.383298   -0.003070
  20 N :   -0.331152    0.017415
  21 H :    0.253150   -0.004718
  22 O :   -0.403450    0.000394
  23 C :   -0.455550    0.001726
  24 H :    0.159160   -0.000125
  25 H :    0.128859    0.000114
  26 H :    0.156483    0.000892
  27 C :   -0.303357    0.000041
  28 H :    0.173482    0.001406
  29 H :    0.143224   -0.000033
  30 H :    0.149178    0.000105
  31 H :    0.178924   -0.003794
Sum of atomic charges         :   -0.0000000

LOEWDIN ATOMIC CHARGES AND SPIN POPULATIONS
-------------------------------------------
   0 N :    0.142097    0.028112
   1 C :   -0.263207    0.060026
   2 C :   -0.436830    0.015564
   3 O :    0.057465    0.003577
   4 C :   -0.102207    0.746874
   5 C :   -0.276437    0.056450
   6 C :   -0.273642    0.015306
   7 C :   -0.347113    0.002545
   8 N :   -0.182421    0.000705
   9 H :    0.136834    0.000323
  10 H :    0.149872    0.003835
  11 H :    0.151987    0.031163
  12 H :    0.137875   -0.000143
  13 H :    0.137369    0.000360
  14 H :    0.129978    0.000045
  15 H :    0.115114    0.000279
  16 H :    0.146965    0.000247
  17 H :    0.148502    0.000015
  18 H :    0.193912    0.001373
  19 C :   -0.482411    0.003131
  20 N :    0.102293    0.014361
  21 H :    0.187630    0.005983
  22 O :    0.058476    0.005350
  23 C :   -0.263146    0.002178
  24 H :    0.139147   -0.000022
  25 H :    0.121831    0.000098
  26 H :    0.137624    0.000480
  27 C :   -0.301163    0.001320
  28 H :    0.131173    0.000781
  29 H :    0.117348   -0.000024
  30 H :    0.115963    0.000138
  31 H :    0.169121   -0.000428

  Mayer bond orders larger than 0.100000
B(  0-N ,  1-C ) :   0.9129 B(  0-N , 18-H ) :   0.8771 B(  0-N , 19-C ) :   1.2008
B(  1-C ,  2-C ) :   0.9657 B(  1-C ,  4-C ) :   0.9791 B(  1-C , 31-H ) :   0.9733
B(  2-C ,  3-O ) :   1.9128 B(  2-C , 20-N ) :   1.2439 B(  4-C ,  5-C ) :   0.8816
B(  4-C ,  9-H ) :   0.9490 B(  5-C ,  6-C ) :   0.9025 B(  5-C , 10-H ) :   1.0019
B(  5-C , 11-H ) :   0.9258 B(  6-C ,  7-C ) :   0.9393 B(  6-C , 12-H ) :   0.9721
B(  6-C , 13-H ) :   0.9831 B(  7-C ,  8-N ) :   0.9792 B(  7-C , 14-H ) :   0.9693
B(  7-C , 15-H ) :   0.9869 B(  8-N , 16-H ) :   0.9366 B(  8-N , 17-H ) :   0.9318
B( 19-C , 22-O ) :   1.9432 B( 19-C , 23-C ) :   0.9098 B( 20-N , 21-H ) :   0.9088
B( 20-N , 27-C ) :   0.9122 B( 23-C , 24-H ) :   0.9584 B( 23-C , 25-H ) :   0.9863
B( 23-C , 26-H ) :   0.9617 B( 27-C , 28-H ) :   0.9639 B( 27-C , 29-H ) :   0.9672
B( 27-C , 30-H ) :   0.9700

FINAL SINGLE POINT ENERGY      -668.446037051928

DIPOLE MOMENT
-------------
                                X             Y             Z
Electronic contribution:    -10.95979       1.98683      -0.84879
Nuclear contribution   :     11.61985      -2.61067       0.88437
                        -----------------------------------------
Total Dipole Moment    :      0.66005      -0.62384       0.03558
                        -----------------------------------------
Magnitude (a.u.)       :      0.90890
Magnitude (Debye)      :      2.31025

VIBRATIONAL FREQUENCIES
-----------------------

Scaling factor for frequencies =  1.000000000  (already applied!)

   0:         0.00 cm**-1
   1:         0.00 cm**-1
   2:         0.00 cm**-1
   3:         0.00 cm**-1
   4:         0.00 cm**-1
   5:         0.00 cm**-1
   6:       -56.11 cm**-1 ***imaginary mode***
   7:        15.37 cm**-1
   8:        45.78 cm**-1
   9:        53.97 cm**-1
  10:        71.83 cm**-1
  11:        79.98 cm**-1
  12:        82.34 cm**-1
  13:        99.86 cm**-1
  14:       113.25 cm**-1
  15:       119.47 cm**-1
  16:       144.05 cm**-1
  17:       165.60 cm**-1
  18:       210.59 cm**-1
  19:       234.66 cm**-1
  20:       265.11 cm**-1
  21:       298.43 cm**-1
  22:       310.02 cm**-1
  23:       354.59 cm**-1
  24:       384.90 cm**-1
  25:       436.89 cm**-1
  26:       489.02 cm**-1
  27:       510.17 cm**-1
  28:       529.17 cm**-1
  29:       557.35 cm**-1
  30:       587.07 cm**-1
  31:       627.13 cm**-1
  32:       667.56 cm**-1
  33:       725.55 cm**-1
  34:       737.12 cm**-1
  35:       806.96 cm**-1
  36:       835.67 cm**-1
  37:       876.54 cm**-1
  38:       897.66 cm**-1
  39:       945.77 cm**-1
  40:       992.24 cm**-1
  41:      1018.93 cm**-1
  42:      1026.88 cm**-1
  43:      1061.94 cm**-1
  44:      1063.75 cm**-1
  45:      1066.79 cm**-1
  46:      1091.20 cm**-1
  47:      1112.79 cm**-1
  48:      1137.49 cm**-1
  49:      1158.92 cm**-1
  50:      1167.66 cm**-1
  51:      1187.00 cm**-1
  52:      1202.68 cm**-1
  53:      1230.48 cm**-1
  54:      1248.34 cm**-1
  55:      1271.52 cm**-1
  56:      1283.73 cm**-1
  57:      1309.51 cm**-1
  58:      1331.55 cm**-1
  59:      1334.13 cm**-1
  60:      1360.62 cm**-1
  61:      1366.88 cm**-1
  62:      1401.36 cm**-1
  63:      1423.56 cm**-1
  64:      1435.33 cm**-1
  65:      1456.18 cm**-1
  66:      1473.86 cm**-1
  67:      1474.72 cm**-1
  68:      1484.27 cm**-1
  69:      1492.33 cm**-1
  70:      1498.46 cm**-1
  71:      1513.65 cm**-1
  72:      1519.95 cm**-1
  73:      1535.19 cm**-1
  74:      1586.99 cm**-1
  75:      1657.09 cm**-1
  76:      1776.16 cm**-1
  77:      1788.09 cm**-1
  78:      3002.02 cm**-1
  79:      3005.66 cm**-1
  80:      3052.06 cm**-1
  81:      3064.98 cm**-1
  82:      3065.40 cm**-1
  83:      3074.56 cm**-1
  84:      3088.61 cm**-1
  85:      3089.69 cm**-1
  86:      3112.36 cm**-1
  87:      3149.22 cm**-1
  88:      3171.23 cm**-1
  89:      3182.98 cm**-1
  90:      3189.60 cm**-1
  91:      3216.05 cm**-1
  92:      3524.65 cm**-1
  93:      3607.79 cm**-1
  94:      3609.39 cm**-1
  95:      3637.75 cm**-1

IR SPECTRUM
-----------

 Mode   freq       eps      Int      T**2         TX        TY        TZ
       cm**-1   L/(mol*cm) km/mol    a.u.
----------------------------------------------------------------------------
  7:     15.37   0.000200    1.01  0.004070  ( 0.058771 -0.000450  0.024810)
  8:     45.78   0.000132    0.67  0.000902  (-0.015105  0.008987 -0.024357)
  9:     53.97   0.000136    0.69  0.000786  (-0.025618 -0.010726 -0.003797)
 10:     71.83   0.000107    0.54  0.000467  (-0.017213  0.009596 -0.008853)
 11:     79.98   0.002657   13.43  0.010366  (-0.092327 -0.012802 -0.040967)
 12:     82.34   0.000087    0.44  0.000329  ( 0.014578 -0.010473 -0.002699)
 13:     99.86   0.000281    1.42  0.000878  ( 0.022442  0.015711  0.011293)
 14:    113.25   0.000780    3.94  0.002148  (-0.019649 -0.041953 -0.001376)
 15:    119.47   0.000557    2.82  0.001455  (-0.015447  0.028839  0.019617)
 16:    144.05   0.002203   11.13  0.004773  (-0.030976  0.061667 -0.003222)
 17:    165.60   0.000770    3.89  0.001451  (-0.023054 -0.020041 -0.022752)
 18:    210.59   0.001253    6.33  0.001857  ( 0.029910 -0.007805  0.030017)
 19:    234.66   0.001192    6.03  0.001586  ( 0.017485 -0.025688 -0.024901)
 20:    265.11   0.007298   36.88  0.008590  (-0.043901  0.055178 -0.060152)
 21:    298.43   0.000307    1.55  0.000321  ( 0.000058  0.016592  0.006735)
 22:    310.02   0.000292    1.48  0.000294  ( 0.012265 -0.006250  0.010213)
 23:    354.59   0.000084    0.42  0.000074  (-0.000659  0.000193  0.008564)
 24:    384.90   0.004875   24.63  0.003952  ( 0.004631 -0.057917 -0.024007)
 25:    436.89   0.005531   27.95  0.003950  (-0.060241  0.011091 -0.014088)
 26:    489.02   0.000305    1.54  0.000195  (-0.007001 -0.012063  0.000053)
 27:    510.17   0.009547   48.25  0.005840  ( 0.063571  0.009792  0.041263)
 28:    529.17   0.007668   38.75  0.004522  (-0.014196 -0.031168 -0.057869)
 29:    557.35   0.017423   88.05  0.009755  ( 0.087670 -0.011059  0.044121)
 30:    587.07   0.004319   21.83  0.002296  (-0.007673 -0.040191 -0.024933)
 31:    627.13   0.001856    9.38  0.000924  (-0.010078  0.028273  0.004764)
 32:    667.56   0.001611    8.14  0.000753  ( 0.022502 -0.008763  0.013038)
 33:    725.55   0.001554    7.85  0.000668  (-0.013348 -0.018185 -0.012633)
 34:    737.12   0.000496    2.51  0.000210  ( 0.011094  0.008658  0.003456)
 35:    806.96   0.004385   22.16  0.001696  (-0.024665  0.024905  0.021614)
 36:    835.67   0.015483   78.24  0.005782  ( 0.026011 -0.053028 -0.047887)
 37:    876.54   0.007685   38.84  0.002736  (-0.017970  0.038895  0.030005)
 38:    897.66   0.000611    3.09  0.000213  (-0.008921 -0.002998  0.011136)
 39:    945.77   0.000707    3.57  0.000233  (-0.005223 -0.005564  0.013233)
 40:    992.24   0.000516    2.61  0.000162  (-0.007000  0.004276  0.009745)
 41:   1018.93   0.000497    2.51  0.000152  ( 0.000040 -0.009550  0.007818)
 42:   1026.88   0.003395   17.16  0.001032  ( 0.018953 -0.025176 -0.006219)
 43:   1061.94   0.001210    6.12  0.000356  (-0.015770 -0.004179 -0.009462)
 44:   1063.75   0.000768    3.88  0.000225  (-0.014415  0.001764  0.003794)
 45:   1066.79   0.001967    9.94  0.000575  ( 0.016382 -0.012490 -0.012286)
 46:   1091.20   0.000175    0.88  0.000050  (-0.004136  0.005308  0.002153)
 47:   1112.79   0.002283   11.54  0.000640  (-0.023830  0.005240  0.006695)
 48:   1137.49   0.001243    6.28  0.000341  (-0.015216 -0.005995 -0.008579)
 49:   1158.92   0.002077   10.50  0.000559  (-0.003511  0.019209  0.013343)
 50:   1167.66   0.000271    1.37  0.000072  ( 0.001578 -0.004727 -0.006902)
 51:   1187.00   0.001735    8.77  0.000456  ( 0.000444  0.019224  0.009294)
 52:   1202.68   0.002794   14.12  0.000725  ( 0.018409 -0.015949 -0.011478)
 53:   1230.48   0.000419    2.12  0.000106  ( 0.002420  0.009183  0.004001)
 54:   1248.34   0.002843   14.36  0.000711  ( 0.012327 -0.023382 -0.003452)
 55:   1271.52   0.007303   36.91  0.001792  ( 0.001588  0.042214  0.002804)
 56:   1283.73   0.000563    2.84  0.000137  (-0.009530  0.003560  0.005769)
 57:   1309.51   0.000139    0.70  0.000033  ( 0.004210  0.003739 -0.001230)
 58:   1331.55   0.006905   34.89  0.001618  (-0.020416  0.034128  0.006052)
 59:   1334.13   0.007676   38.79  0.001795  (-0.011166  0.040714  0.003629)
 60:   1360.62   0.000214    1.08  0.000049  ( 0.005885 -0.003687 -0.000975)
 61:   1366.88   0.001693    8.55  0.000386  (-0.012128  0.015082  0.003450)
 62:   1401.36   0.003769   19.05  0.000839  ( 0.014199 -0.020729 -0.014421)
 63:   1423.56   0.001068    5.40  0.000234  ( 0.015114 -0.002362 -0.000320)
 64:   1435.33   0.002444   12.35  0.000531  (-0.021410  0.000764  0.008504)
 65:   1456.18   0.003579   18.09  0.000767  ( 0.018598 -0.008526 -0.018666)
 66:   1473.86   0.000886    4.48  0.000187  ( 0.005643  0.011926 -0.003663)
 67:   1474.72   0.002245   11.35  0.000475  ( 0.011290  0.016290  0.009069)
 68:   1484.27   0.014526   73.41  0.003054  (-0.012151  0.053857 -0.002421)
 69:   1492.33   0.001200    6.07  0.000251  ( 0.001980  0.006483  0.014321)
 70:   1498.46   0.007020   35.48  0.001462  (-0.008879 -0.033072 -0.017010)
 71:   1513.65   0.004971   25.12  0.001025  (-0.007154  0.031190 -0.000872)
 72:   1519.95   0.000616    3.11  0.000126  ( 0.006170 -0.000407  0.009392)
 73:   1535.19   0.083185  420.38  0.016909  ( 0.046820 -0.113122 -0.043824)
 74:   1586.99   0.037212  188.06  0.007317  (-0.015222  0.074566  0.039058)
 75:   1657.09   0.007394   37.37  0.001393  (-0.032256 -0.018256  0.004329)
 76:   1776.16   0.082329  416.06  0.014465  ( 0.029490  0.062796 -0.098244)
 77:   1788.09   0.024427  123.44  0.004263  ( 0.040503 -0.030397 -0.041214)
 78:   3002.02   0.001472    7.44  0.000153  ( 0.005658 -0.008068 -0.007478)
 79:   3005.66   0.010957   55.37  0.001138  ( 0.005062 -0.020572 -0.026244)
 80:   3052.06   0.002346   11.85  0.000240  (-0.003095  0.002484  0.014970)
 81:   3064.98   0.002725   13.77  0.000277  ( 0.001241  0.006293  0.015373)
 82:   3065.40   0.002997   15.14  0.000305  (-0.007704 -0.014866  0.004973)
 83:   3074.56   0.007249   36.64  0.000736  ( 0.009063 -0.025483 -0.002070)
 84:   3088.61   0.000626    3.16  0.000063  ( 0.003833 -0.000854 -0.006917)
 85:   3089.69   0.002164   10.94  0.000219  (-0.002066 -0.004060  0.014065)
 86:   3112.36   0.007595   38.38  0.000762  (-0.007768 -0.026182  0.003965)
 87:   3149.22   0.002739   13.84  0.000271  ( 0.009922  0.005074  0.012134)
 88:   3171.23   0.000497    2.51  0.000049  ( 0.003724 -0.001297  0.005773)
 89:   3182.98   0.001259    6.36  0.000123  (-0.002543 -0.007817  0.007471)
 90:   3189.60   0.000183    0.92  0.000018  (-0.002568  0.000076  0.003359)
 91:   3216.05   0.000637    3.22  0.000062  (-0.002549 -0.003322  0.006651)
 92:   3524.65   0.000092    0.46  0.000008  (-0.002658 -0.000985 -0.000270)
 93:   3607.79   0.021056  106.41  0.001821  (-0.006601 -0.037509  0.019257)
 94:   3609.39   0.000760    3.84  0.000066  ( 0.002583 -0.003638  0.006769)
 95:   3637.75   0.009320   47.10  0.000800  (-0.015910 -0.006958  0.022315)

--------------------------
THERMOCHEMISTRY AT 298.15K
--------------------------

Temperature         ... 298.15 K
Pressure            ... 1.00 atm
Total Mass          ... 200.26 AMU

Throughout the following assumptions are being made:
  (1) The electronic state is orbitally nondegenerate
      but the spin degeneracy is treated
  (2) There are no thermally accessible electronically excited states
  (3) Hindered rotations indicated by low frequency modes are not
      treated as such but are treated as vibrations and this may
      cause some error
  (4) All equations used are the standard statistical mechanics
      equations for an ideal gas
  (5) All vibrations are strictly harmonic

freq.      15.37  E(vib)   ...       0.57
freq.      45.78  E(vib)   ...       0.53
freq.      53.97  E(vib)   ...       0.52
freq.      71.83  E(vib)   ...       0.50
freq.      79.98  E(vib)   ...       0.49
freq.      82.34  E(vib)   ...       0.48
freq.      99.86  E(vib)   ...       0.46
freq.     113.25  E(vib)   ...       0.45
freq.     119.47  E(vib)   ...       0.44
freq.     144.05  E(vib)   ...       0.41
freq.     165.60  E(vib)   ...       0.39
freq.     210.59  E(vib)   ...       0.34
freq.     234.66  E(vib)   ...       0.32
freq.     265.11  E(vib)   ...       0.29
freq.     298.43  E(vib)   ...       0.26
freq.     310.02  E(vib)   ...       0.26
freq.     354.59  E(vib)   ...       0.22
freq.     384.90  E(vib)   ...       0.20
freq.     436.89  E(vib)   ...       0.17
freq.     489.02  E(vib)   ...       0.15
freq.     510.17  E(vib)   ...       0.14
freq.     529.17  E(vib)   ...       0.13
freq.     557.35  E(vib)   ...       0.12
freq.     587.07  E(vib)   ...       0.10
freq.     627.13  E(vib)   ...       0.09
freq.     667.56  E(vib)   ...       0.08
freq.     725.55  E(vib)   ...       0.06
freq.     737.12  E(vib)   ...       0.06
freq.     806.96  E(vib)   ...       0.05
freq.     835.67  E(vib)   ...       0.04
freq.     876.54  E(vib)   ...       0.04
freq.     897.66  E(vib)   ...       0.03
freq.     945.77  E(vib)   ...       0.03
freq.     992.24  E(vib)   ...       0.02
freq.    1018.93  E(vib)   ...       0.02
freq.    1026.88  E(vib)   ...       0.02
freq.    1061.94  E(vib)   ...       0.02
freq.    1063.75  E(vib)   ...       0.02
freq.    1066.79  E(vib)   ...       0.02
freq.    1091.20  E(vib)   ...       0.02
freq.    1112.79  E(vib)   ...       0.01
freq.    1137.49  E(vib)   ...       0.01
freq.    1158.92  E(vib)   ...       0.01
freq.    1167.66  E(vib)   ...       0.01
freq.    1187.00  E(vib)   ...       0.01
freq.    1202.68  E(vib)   ...       0.01
freq.    1230.48  E(vib)   ...       0.01
freq.    1248.34  E(vib)   ...       0.01
freq.    1271.52  E(vib)   ...       0.01
freq.    1283.73  E(vib)   ...       0.01
freq.    1309.51  E(vib)   ...       0.01
freq.    1331.55  E(vib)   ...       0.01
freq.    1334.13  E(vib)   ...       0.01
freq.    1360.62  E(vib)   ...       0.01
freq.    1366.88  E(vib)   ...       0.01
freq.    1401.36  E(vib)   ...       0.00
freq.    1423.56  E(vib)   ...       0.00
freq.    1435.33  E(vib)   ...       0.00
freq.    1456.18  E(vib)   ...       0.00
freq.    1473.86  E(vib)   ...       0.00
freq.    1474.72  E(vib)   ...       0.00
freq.    1484.27  E(vib)   ...       0.00
freq.    1492.33  E(vib)   ...       0.00
freq.    1498.46  E(vib)   ...       0.00
freq.    1513.65  E(vib)   ...       0.00
freq.    1519.95  E(vib)   ...       0.00
freq.    1535.19  E(vib)   ...       0.00
freq.    1586.99  E(vib)   ...       0.00
freq.    1657.09  E(vib)   ...       0.00
freq.    1776.16  E(vib)   ...       0.00
freq.    1788.09  E(vib)   ...       0.00
freq.    3002.02  E(vib)   ...       0.00
freq.    3005.66  E(vib)   ...       0.00
freq.    3052.06  E(vib)   ...       0.00
freq.    3064.98  E(vib)   ...       0.00
freq.    3065.40  E(vib)   ...       0.00
freq.    3074.56  E(vib)   ...       0.00
freq.    3088.61  E(vib)   ...       0.00
freq.    3089.69  E(vib)   ...       0.00
freq.    3112.36  E(vib)   ...       0.00
freq.    3149.22  E(vib)   ...       0.00
freq.    3171.23  E(vib)   ...       0.00
freq.    3182.98  E(vib)   ...       0.00
freq.    3189.60  E(vib)   ...       0.00
freq.    3216.05  E(vib)   ...       0.00
freq.    3524.65  E(vib)   ...       0.00
freq.    3607.79  E(vib)   ...       0.00
freq.    3609.39  E(vib)   ...       0.00
freq.    3637.75  E(vib)   ...       0.00

------------
INNER ENERGY
------------

The inner energy is: U= E(el) + E(ZPE) + E(vib) + E(rot) + E(trans)
    E(el)   - is the total energy from the electronic structure calculation
              = E(kin-el) + E(nuc-el) + E(el-el) + E(nuc-nuc)
    E(ZPE)  - the the zero temperature vibrational energy from the frequency calculation
    E(vib)  - the the finite temperature correction to E(ZPE) due to population
              of excited vibrational states
    E(rot)  - is the rotational thermal energy
    E(trans)- is the translational thermal energy

Summary of contributions to the inner energy U:
Electronic energy                ...   -668.44603705 Eh
Zero point energy                ...      0.27717491 Eh     173.93 kcal/mol
Thermal vibrational correction   ...      0.01392344 Eh       8.74 kcal/mol
Thermal rotational correction    ...      0.00141627 Eh       0.89 kcal/mol
Thermal translational correction ...      0.00141627 Eh       0.89 kcal/mol
-----------------------------------------------------------------------
Total thermal energy                   -668.15210616 Eh

Summary of corrections to the electronic energy:
(perhaps to be used in another calculation)
Total thermal correction                  0.01675598 Eh      10.51 kcal/mol
Non-thermal (ZPE) correction              0.27717491 Eh     173.93 kcal/mol
-----------------------------------------------------------------------
Total correction                          0.29393089 Eh     184.44 kcal/mol

--------
ENTHALPY
--------

The enthalpy is H = U + kB*T
                kB is Boltzmann's constant
Total free energy                 ...   -668.15210616 Eh
Thermal Enthalpy correction       ...      0.00094421 Eh       0.59 kcal/mol
-----------------------------------------------------------------------
Total Enthalpy                    ...   -668.15116195 Eh

Note: Only C1 symmetry has been detected, increase convergence thresholds
      if your molecule has a higher symmetry. Symmetry factor of 1.0 is
      used for the rotational entropy correction.

Note: Rotational entropy computed according to Herzberg
Infrared and Raman Spectra, Chapter V,1, Van Nostrand Reinhold, 1945
Point Group:  C1, Symmetry Number:   1
Rotational constants in cm-1:     0.022221     0.013254     0.009266

                             ****ORCA TERMINATED NORMALLY****
TOTAL RUN TIME: 0 days 0 hours 34 minutes 42 seconds 434 msec
