                         Program Version 5.0.4 -  RELEASE  -
|  1> ! B3LYP EPR-II OPT
|  2> %pal nprocs 16 end
|  3> *XYZFile 0 2 model.xyz
|  4>
|  5>                          ****END OF INPUT****
 Total Charge           Charge          ....    0
 Multiplicity           Mult            ....    2
 Number of Electrons    NEL             ....  109
FINAL SINGLE POINT ENERGY      -668.216663636627
FINAL SINGLE POINT ENERGY      -668.218063212347
FINAL SINGLE POINT ENERGY      -668.218169263399
FINAL SINGLE POINT ENERGY      -668.218211834663
FINAL SINGLE POINT ENERGY      -668.218231866159
FINAL SINGLE POINT ENERGY      -668.218245315086
FINAL SINGLE POINT ENERGY      -668.218259156432
FINAL SINGLE POINT ENERGY      -668.218265545310
FINAL SINGLE POINT ENERGY      -668.218271464057
FINAL SINGLE POINT ENERGY      -668.218274616380
FINAL SINGLE POINT ENERGY      -668.218300165015
FINAL SINGLE POINT ENERGY      -668.218313079833
FINAL SINGLE POINT ENERGY      -668.218328313154
FINAL SINGLE POINT ENERGY      -668.218338507725
FINAL SINGLE POINT ENERGY      -668.218353784776
FINAL SINGLE POINT ENERGY      -668.218370541539
FINAL SINGLE POINT ENERGY      -668.218379276565
FINAL SINGLE POINT ENERGY      -668.218384488036
FINAL SINGLE POINT ENERGY      -668.218387380487
                    ***********************HURRAY********************

CARTESIAN COORDINATES (ANGSTROEM)
---------------------------------
  N     -1.984447    0.776611    0.809381
  C     -1.564756   -0.014801   -0.345979
  C     -1.855279   -1.500637    0.032114
  O     -2.535147   -1.793719    1.016703
  C     -0.134476    0.228144   -0.758798
  C      0.986792    0.195291    0.237355
  C      2.368729   -0.032913   -0.405210
  C      3.519230    0.060219    0.606457
  N      4.811539   -0.204028   -0.052648
  H      0.043020    0.691225   -1.726450
  H      0.795004   -0.573326    1.000214
  H      1.003953    1.152621    0.787693
  H      2.523549    0.714790   -1.196314
  H      2.406202   -1.015929   -0.889000
  H      3.377182   -0.702404    1.382275
  H      3.472061    1.041668    1.110111
  H      5.558424   -0.176992    0.636677
  H      5.012274    0.546065   -0.709964
  H     -2.422923    0.237445    1.547550
  C     -2.170157    2.128701    0.721283
  N     -1.338703   -2.411659   -0.834472
  H     -0.712084   -2.058695   -1.544696
  O     -1.857861    2.776699   -0.277993
  C     -2.771602    2.794051    1.956743
  H     -3.685526    3.315079    1.659043
  H     -3.000094    2.091535    2.762459
  H     -2.067055    3.545641    2.323570
  C     -1.518073   -3.850533   -0.684672
  H     -2.277264   -4.018257    0.079531
  H     -1.852014   -4.293029   -1.628110
  H     -0.587975   -4.337876   -0.370889
  H     -2.214857    0.223127   -1.199846

 Multiplicity           Mult            ....    2
 Number of Electrons    NEL             ....  109
 Basis Dimension        Dim             ....  364

ORBITAL ENERGIES
----------------
                 SPIN UP ORBITALS
  NO   OCC          E(Eh)            E(eV)
   0   1.0000     -19.124197      -520.3959
   1   1.0000     -19.100414      -519.7487
   2   1.0000     -14.370176      -391.0324
   3   1.0000     -14.348620      -390.4458
   4   1.0000     -14.309890      -389.3919
   5   1.0000     -10.304945      -280.4118
   6   1.0000     -10.286906      -279.9210
   7   1.0000     -10.242453      -278.7113
   8   1.0000     -10.224161      -278.2136
   9   1.0000     -10.207987      -277.7734
  10   1.0000     -10.203298      -277.6459
  11   1.0000     -10.190875      -277.3078
  12   1.0000     -10.185370      -277.1580
  13   1.0000     -10.183499      -277.1071
  14   1.0000      -1.046866       -28.4867
  15   1.0000      -1.022008       -27.8102
  16   1.0000      -0.931897       -25.3582
  17   1.0000      -0.915936       -24.9239
  18   1.0000      -0.877673       -23.8827
  19   1.0000      -0.802358       -21.8333
  20   1.0000      -0.762669       -20.7533
  21   1.0000      -0.727069       -19.7846
  22   1.0000      -0.710093       -19.3226
  23   1.0000      -0.671833       -18.2815
  24   1.0000      -0.612875       -16.6772
  25   1.0000      -0.594608       -16.1801
  26   1.0000      -0.588015       -16.0007
  27   1.0000      -0.555156       -15.1066
  28   1.0000      -0.534122       -14.5342
  29   1.0000      -0.492824       -13.4104
  30   1.0000      -0.487376       -13.2622
  31   1.0000      -0.475822       -12.9478
  32   1.0000      -0.469933       -12.7875
  33   1.0000      -0.458855       -12.4861
  34   1.0000      -0.453564       -12.3421
  35   1.0000      -0.446855       -12.1595
  36   1.0000      -0.434052       -11.8112
  37   1.0000      -0.429522       -11.6879
  38   1.0000      -0.417567       -11.3626
  39   1.0000      -0.401391       -10.9224
  40   1.0000      -0.399893       -10.8816
  41   1.0000      -0.392425       -10.6784
  42   1.0000      -0.389476       -10.5982
  43   1.0000      -0.383790       -10.4435
  44   1.0000      -0.366172        -9.9640
  45   1.0000      -0.354428        -9.6445
  46   1.0000      -0.350241        -9.5305
  47   1.0000      -0.335298        -9.1239
  48   1.0000      -0.332536        -9.0488
  49   1.0000      -0.281098        -7.6491
  50   1.0000      -0.270564        -7.3624
  51   1.0000      -0.252944        -6.8830
  52   1.0000      -0.247815        -6.7434
  53   1.0000      -0.240220        -6.5367
  54   1.0000      -0.199959        -5.4412
  55   0.0000       0.004737         0.1289
  56   0.0000       0.013698         0.3727
  57   0.0000       0.021408         0.5825
  58   0.0000       0.027054         0.7362
  59   0.0000       0.029236         0.7956

                 SPIN DOWN ORBITALS
  NO   OCC          E(Eh)            E(eV)
   0   1.0000     -19.123879      -520.3872
   1   1.0000     -19.100138      -519.7412
   2   1.0000     -14.369749      -391.0207
   3   1.0000     -14.347636      -390.4190
   4   1.0000     -14.309870      -389.3913
   5   1.0000     -10.304145      -280.3901
   6   1.0000     -10.286904      -279.9209
   7   1.0000     -10.243287      -278.7340
   8   1.0000     -10.224180      -278.2141
   9   1.0000     -10.207959      -277.7727
  10   1.0000     -10.191671      -277.3295
  11   1.0000     -10.189803      -277.2786
  12   1.0000     -10.185286      -277.1557
  13   1.0000     -10.183205      -277.0991
  14   1.0000      -1.046025       -28.4638
  15   1.0000      -1.021425       -27.7944
  16   1.0000      -0.930894       -25.3309
  17   1.0000      -0.913732       -24.8639
  18   1.0000      -0.877573       -23.8800
  19   1.0000      -0.792070       -21.5533
  20   1.0000      -0.761296       -20.7159
  21   1.0000      -0.726309       -19.7639
  22   1.0000      -0.703120       -19.1329
  23   1.0000      -0.670071       -18.2336
  24   1.0000      -0.603949       -16.4343
  25   1.0000      -0.593260       -16.1434
  26   1.0000      -0.586354       -15.9555
  27   1.0000      -0.546706       -14.8766
  28   1.0000      -0.530251       -14.4289
  29   1.0000      -0.490840       -13.3564
  30   1.0000      -0.486261       -13.2318
  31   1.0000      -0.475261       -12.9325
  32   1.0000      -0.467442       -12.7197
  33   1.0000      -0.458062       -12.4645
  34   1.0000      -0.452602       -12.3159
  35   1.0000      -0.445549       -12.1240
  36   1.0000      -0.431605       -11.7446
  37   1.0000      -0.427707       -11.6385
  38   1.0000      -0.412250       -11.2179
  39   1.0000      -0.400572       -10.9001
  40   1.0000      -0.398128       -10.8336
  41   1.0000      -0.390303       -10.6207
  42   1.0000      -0.388638       -10.5754
  43   1.0000      -0.382295       -10.4028
  44   1.0000      -0.363045        -9.8789
  45   1.0000      -0.353531        -9.6201
  46   1.0000      -0.346707        -9.4344
  47   1.0000      -0.333647        -9.0790
  48   1.0000      -0.329871        -8.9762
  49   1.0000      -0.274668        -7.4741
  50   1.0000      -0.269796        -7.3415
  51   1.0000      -0.251070        -6.8320
  52   1.0000      -0.245013        -6.6671
  53   1.0000      -0.239739        -6.5236
  54   0.0000      -0.065121        -1.7720
  55   0.0000       0.006005         0.1634
  56   0.0000       0.014722         0.4006
  57   0.0000       0.022294         0.6067
  58   0.0000       0.027448         0.7469

MULLIKEN ATOMIC CHARGES AND SPIN POPULATIONS
--------------------------------------------
   0 N :   -0.131800    0.027247
   1 C :   -0.110913   -0.048805
   2 C :    0.055402    0.020597
   3 O :   -0.338105    0.008548
   4 C :   -0.136522    0.983770
   5 C :   -0.218282   -0.058042
   6 C :   -0.287664    0.011248
   7 C :   -0.290361    0.001071
   8 N :   -0.455961    0.000524
   9 H :    0.113789   -0.048765
  10 H :    0.147914    0.015232
  11 H :    0.155758    0.053196
  12 H :    0.144337   -0.000572
  13 H :    0.161096   -0.000467
  14 H :    0.156842    0.000155
  15 H :    0.134583    0.000258
  16 H :    0.210561    0.000244
  17 H :    0.210335    0.000048
  18 H :    0.249757    0.000580
  19 C :    0.177249   -0.002140
  20 N :   -0.074841    0.016881
  21 H :    0.236324    0.002761
  22 O :   -0.318248    0.008635
  23 C :   -0.551723    0.003304
  24 H :    0.185513   -0.000266
  25 H :    0.149546   -0.000014
  26 H :    0.183068    0.000656
  27 C :   -0.453921   -0.001395
  28 H :    0.197306    0.001820
  29 H :    0.161038   -0.000025
  30 H :    0.164408    0.000471
  31 H :    0.173515    0.003245
Sum of atomic charges         :   -0.0000000

LOEWDIN ATOMIC CHARGES AND SPIN POPULATIONS
-------------------------------------------
   0 N :    0.057426    0.026636
   1 C :   -0.058634    0.014312
   2 C :   -0.090456    0.026493
   3 O :   -0.192944    0.010466
   4 C :   -0.041488    0.797423
   5 C :   -0.081366    0.007868
   6 C :   -0.084313    0.010822
   7 C :   -0.061974    0.001380
   8 N :   -0.095547    0.000583
   9 H :    0.044958    0.009795
  10 H :    0.054332    0.012721
  11 H :    0.061764    0.042966
  12 H :    0.043333    0.000083
  13 H :    0.047825   -0.000255
  14 H :    0.038516    0.000162
  15 H :    0.024304    0.000527
  16 H :    0.049397    0.000185
  17 H :    0.051509    0.000018
  18 H :    0.089669    0.001337
  19 C :   -0.103469    0.002317
  20 N :    0.046789    0.014201
  21 H :    0.083861    0.007393
  22 O :   -0.186395    0.007551
  23 C :   -0.042815    0.002673
  24 H :    0.054163   -0.000050
  25 H :    0.033793    0.000008
  26 H :    0.053682    0.000463
  27 C :    0.011541    0.000192
  28 H :    0.053732    0.000918
  29 H :    0.032309   -0.000052
  30 H :    0.032414    0.000316
  31 H :    0.074084    0.000547

  Mayer bond orders larger than 0.100000
B(  0-N ,  1-C ) :   1.0316 B(  0-N , 18-H ) :   0.8877 B(  0-N , 19-C ) :   1.2057
B(  1-C ,  2-C ) :   0.8716 B(  1-C ,  4-C ) :   0.9802 B(  1-C , 22-O ) :   0.1141
B(  1-C , 31-H ) :   0.9578 B(  2-C ,  3-O ) :   1.8513 B(  2-C , 20-N ) :   1.1960
B(  4-C ,  5-C ) :   1.0141 B(  4-C ,  9-H ) :   0.9826 B(  5-C ,  6-C ) :   0.9611
B(  5-C , 10-H ) :   0.9624 B(  5-C , 11-H ) :   0.9420 B(  6-C ,  7-C ) :   0.9643
B(  6-C , 12-H ) :   0.9759 B(  6-C , 13-H ) :   0.9683 B(  7-C ,  8-N ) :   1.0226
B(  7-C , 14-H ) :   0.9590 B(  7-C , 15-H ) :   0.9408 B(  8-N , 16-H ) :   0.9441
B(  8-N , 17-H ) :   0.9471 B( 19-C , 22-O ) :   1.8654 B( 19-C , 23-C ) :   0.8879
B( 20-N , 21-H ) :   0.9154 B( 20-N , 27-C ) :   0.9662 B( 23-C , 24-H ) :   0.9596
B( 23-C , 25-H ) :   0.9761 B( 23-C , 26-H ) :   0.9600 B( 27-C , 28-H ) :   0.9465
B( 27-C , 29-H ) :   0.9629 B( 27-C , 30-H ) :   0.9568

FINAL SINGLE POINT ENERGY      -668.218390110173

DIPOLE MOMENT
-------------
                                X             Y             Z
Electronic contribution:    -11.20197       1.53103      -1.08518
Nuclear contribution   :     11.89378      -2.24023       1.15487
                        -----------------------------------------
Total Dipole Moment    :      0.69181      -0.70919       0.06968
                        -----------------------------------------
Magnitude (a.u.)       :      0.99318
Magnitude (Debye)      :      2.52447

Rotational constants in cm-1:     0.020180     0.013329     0.008891
Rotational constants in MHz :   604.971780   399.580939   266.547810

                             ****ORCA TERMINATED NORMALLY****
TOTAL RUN TIME: 0 days 0 hours 12 minutes 14 seconds 36 msec
